<?xml version="1.0" encoding="UTF-8"?>

<!-- generated on 2022-07-26 16:21:13 by Eclipse SUMO GUI Version 1.10.0
<configuration xmlns:xsi="http://www.w3.org/2001/XMLSchema-instance" xsi:noNamespaceSchemaLocation="http://sumo.dlr.de/xsd/sumoConfiguration.xsd">

    <input>
        <net-file value="./input/Veberod_intersection_pedestrian.net.xml"/>
        <route-files value="./input/Veberod_intersection_pedestrian.rou.xml,./input/Veberod_intersection_pedestrian.trip.xml"/>
        <additional-files value="./input/Veberod_intersection_pedestrian.add.xml"/>
    </input>

    <output>
        <fcd-output value="./output/veberod-fcd.xml"/>
        <fcd-output.geo value="true"/>
    </output>

    <time>
        <begin value="0"/>
        <end value="3600"/>
        <step-length value="0.2"/>
    </time>

    <report>
        <no-warnings value="true"/>
        <no-step-log value="true"/>
    </report>

    <traci_server>
        <remote-port value="60616"/>
    </traci_server>

    <gui_only>
        <gui-settings-file value="./input/viewsettings.xml"/>
        <tracker-interval value="0.2"/>
    </gui_only>

</configuration>
-->

<fcd-export xmlns:xsi="http://www.w3.org/2001/XMLSchema-instance" xsi:noNamespaceSchemaLocation="http://sumo.dlr.de/xsd/fcd_file.xsd">
    <timestep time="0.00"/>
    <timestep time="0.20"/>
    <timestep time="0.40"/>
    <timestep time="0.60"/>
    <timestep time="0.80"/>
    <timestep time="1.00">
        <vehicle id="right_0" x="13.490762" y="55.635001" angle="157.287464" type="v1" speed="0.000000" pos="5.100000" lane="96027913#0_1" slope="0.000000"/>
    </timestep>
    <timestep time="1.20">
        <vehicle id="right_0" x="13.490762" y="55.635001" angle="157.113723" type="v1" speed="0.485102" pos="5.197020" lane="96027913#0_1" slope="0.000000"/>
    </timestep>
    <timestep time="1.40">
        <vehicle id="right_0" x="13.490764" y="55.634999" angle="156.784124" type="v1" speed="0.920392" pos="5.381099" lane="96027913#0_1" slope="0.000000"/>
    </timestep>
    <timestep time="1.60">
        <vehicle id="right_0" x="13.490766" y="55.634997" angle="156.268855" type="v1" speed="1.439303" pos="5.668959" lane="96027913#0_1" slope="0.000000"/>
    </timestep>
    <timestep time="1.80">
        <vehicle id="right_0" x="13.490769" y="55.634994" angle="155.578836" type="v1" speed="1.928635" pos="6.054686" lane="96027913#0_1" slope="0.000000"/>
    </timestep>
    <timestep time="2.00">
        <vehicle id="right_0" x="13.490772" y="55.634990" angle="154.724652" type="v1" speed="2.390156" pos="6.532718" lane="96027913#0_1" slope="0.000000"/>
        <vehicle id="up_2" x="13.491935" y="55.632759" angle="7.870063" type="v1" speed="0.000000" pos="5.100000" lane="-355113043#1_1" slope="0.000000"/>
    </timestep>
    <timestep time="2.20">
        <vehicle id="right_0" x="13.490776" y="55.634985" angle="153.677703" type="v1" speed="2.873819" pos="7.107481" lane="96027913#0_1" slope="0.000000"/>
        <vehicle id="up_2" x="13.491935" y="55.632760" angle="7.870063" type="v1" speed="0.496599" pos="5.199320" lane="-355113043#1_1" slope="0.000000"/>
    </timestep>
    <timestep time="2.40">
        <vehicle id="right_0" x="13.490782" y="55.634981" angle="152.736075" type="v1" speed="3.282202" pos="7.763922" lane="96027913#0_1" slope="0.000000"/>
        <vehicle id="up_2" x="13.491935" y="55.632762" angle="7.870063" type="v1" speed="0.955831" pos="5.390486" lane="-355113043#1_1" slope="0.000000"/>
    </timestep>
    <timestep time="2.60">
        <vehicle id="right_0" x="13.490788" y="55.634975" angle="151.977448" type="v1" speed="3.674645" pos="8.498851" lane="96027913#0_1" slope="0.000000"/>
        <vehicle id="up_2" x="13.491936" y="55.632764" angle="7.870063" type="v1" speed="1.354639" pos="5.661414" lane="-355113043#1_1" slope="0.000000"/>
    </timestep>
    <timestep time="2.80">
        <vehicle id="right_0" x="13.490795" y="55.634969" angle="151.134347" type="v1" speed="4.081639" pos="9.315178" lane="96027913#0_1" slope="0.000000"/>
        <vehicle id="up_2" x="13.491937" y="55.632767" angle="7.870063" type="v1" speed="1.849356" pos="6.031285" lane="-355113043#1_1" slope="0.000000"/>
    </timestep>
    <timestep time="3.00">
        <vehicle id="right_0" x="13.490803" y="55.634962" angle="150.214531" type="v1" speed="4.452425" pos="10.205663" lane="96027913#0_1" slope="0.000000"/>
        <vehicle id="up_2" x="13.491937" y="55.632771" angle="7.870063" type="v1" speed="2.158816" pos="6.463048" lane="-355113043#1_1" slope="0.000000"/>
    </timestep>
    <timestep time="3.20">
        <vehicle id="right_0" x="13.490811" y="55.634955" angle="149.213657" type="v1" speed="4.846685" pos="11.175000" lane="96027913#0_1" slope="0.000000"/>
        <vehicle id="right_1" x="13.490762" y="55.635001" angle="157.287464" type="v1" speed="0.000000" pos="5.100000" lane="96027913#0_1" slope="0.000000"/>
        <vehicle id="up_2" x="13.491938" y="55.632776" angle="7.870063" type="v1" speed="2.511665" pos="6.965381" lane="-355113043#1_1" slope="0.000000"/>
    </timestep>
    <timestep time="3.40">
        <vehicle id="right_0" x="13.490820" y="55.634947" angle="148.273590" type="v1" speed="5.203018" pos="12.215604" lane="96027913#0_1" slope="0.000000"/>
        <vehicle id="right_1" x="13.490762" y="55.635000" angle="157.105142" type="v1" speed="0.509060" pos="5.201812" lane="96027913#0_1" slope="0.000000"/>
        <vehicle id="up_2" x="13.491939" y="55.632781" angle="7.870063" type="v1" speed="2.797572" pos="7.524896" lane="-355113043#1_1" slope="0.000000"/>
    </timestep>
    <timestep time="3.60">
        <vehicle id="right_0" x="13.490830" y="55.634939" angle="148.273590" type="v1" speed="5.597862" pos="13.335176" lane="96027913#0_1" slope="0.000000"/>
        <vehicle id="right_1" x="13.490764" y="55.634999" angle="156.745525" type="v1" speed="1.004230" pos="5.402658" lane="96027913#0_1" slope="0.000000"/>
        <vehicle id="up_2" x="13.491940" y="55.632787" angle="7.870063" type="v1" speed="3.182518" pos="8.161400" lane="-355113043#1_1" slope="0.000000"/>
    </timestep>
    <timestep time="3.80">
        <vehicle id="right_0" x="13.490842" y="55.634930" angle="146.907218" type="v1" speed="6.078626" pos="14.550901" lane="96027913#0_1" slope="0.000000"/>
        <vehicle id="right_1" x="13.490766" y="55.634997" angle="156.232888" type="v1" speed="1.431998" pos="5.689058" lane="96027913#0_1" slope="0.000000"/>
        <vehicle id="up_2" x="13.491942" y="55.632793" angle="7.870063" type="v1" speed="3.612890" pos="8.883978" lane="-355113043#1_1" slope="0.000000"/>
    </timestep>
    <timestep time="4.00">
        <vehicle id="right_0" x="13.490855" y="55.634921" angle="145.307552" type="v1" speed="6.554379" pos="15.861777" lane="96027913#0_1" slope="0.000000"/>
        <vehicle id="right_1" x="13.490769" y="55.634994" angle="155.569763" type="v1" speed="1.853515" pos="6.059761" lane="96027913#0_1" slope="0.000000"/>
        <vehicle id="up_2" x="13.491943" y="55.632800" angle="7.870063" type="v1" speed="3.918445" pos="9.667667" lane="-355113043#1_1" slope="0.000000"/>
    </timestep>
    <timestep time="4.20">
        <vehicle id="right_0" x="13.490869" y="55.634911" angle="143.614571" type="v1" speed="6.936360" pos="17.249049" lane="96027913#0_1" slope="0.000000"/>
        <vehicle id="right_1" x="13.490772" y="55.634990" angle="154.770424" type="v1" speed="2.236618" pos="6.507084" lane="96027913#0_1" slope="0.000000"/>
        <vehicle id="up_2" x="13.491945" y="55.632808" angle="7.870063" type="v1" speed="4.213121" pos="10.510291" lane="-355113043#1_1" slope="0.000000"/>
    </timestep>
    <timestep time="4.40">
        <vehicle id="right_0" x="13.490883" y="55.634901" angle="142.175987" type="v1" speed="7.364114" pos="18.721872" lane="96027913#0_1" slope="0.000000"/>
        <vehicle id="right_1" x="13.490776" y="55.634986" angle="153.875214" type="v1" speed="2.508972" pos="7.008879" lane="96027913#0_1" slope="0.000000"/>
        <vehicle id="up_2" x="13.491946" y="55.632816" angle="7.870063" type="v1" speed="4.670967" pos="11.444484" lane="-355113043#1_1" slope="0.000000"/>
    </timestep>
    <timestep time="4.60">
        <vehicle id="right_0" x="13.490899" y="55.634891" angle="142.175987" type="v1" speed="7.735747" pos="20.269021" lane="96027913#0_1" slope="0.000000"/>
        <vehicle id="right_1" x="13.490781" y="55.634982" angle="152.898080" type="v1" speed="2.990122" pos="7.606903" lane="96027913#0_1" slope="0.000000"/>
        <vehicle id="up_2" x="13.491948" y="55.632825" angle="7.870063" type="v1" speed="5.076916" pos="12.459867" lane="-355113043#1_1" slope="0.000000"/>
    </timestep>
    <timestep time="4.80">
        <vehicle id="right_0" x="13.490915" y="55.634879" angle="142.175987" type="v1" speed="8.086858" pos="21.886393" lane="96027913#0_1" slope="0.000000"/>
        <vehicle id="right_1" x="13.490786" y="55.634977" angle="152.223324" type="v1" speed="3.269030" pos="8.260709" lane="96027913#0_1" slope="0.000000"/>
        <vehicle id="up_2" x="13.491950" y="55.632835" angle="7.870063" type="v1" speed="5.540939" pos="13.568055" lane="-355113043#1_1" slope="0.000000"/>
    </timestep>
    <timestep time="5.00">
        <vehicle id="right_0" x="13.490932" y="55.634867" angle="142.175987" type="v1" speed="8.544228" pos="23.595239" lane="96027913#0_1" slope="0.000000"/>
        <vehicle id="right_1" x="13.490793" y="55.634971" angle="151.454682" type="v1" speed="3.721697" pos="9.005049" lane="96027913#0_1" slope="0.000000"/>
        <vehicle id="up_2" x="13.491953" y="55.632845" angle="7.870063" type="v1" speed="5.806595" pos="14.729374" lane="-355113043#1_1" slope="0.000000"/>
    </timestep>
    <timestep time="5.20">
        <vehicle id="right_0" x="13.490950" y="55.634855" angle="142.175987" type="v1" speed="8.852672" pos="25.365773" lane="96027913#0_1" slope="0.000000"/>
        <vehicle id="right_1" x="13.490800" y="55.634965" angle="150.587804" type="v1" speed="4.196159" pos="9.844280" lane="96027913#0_1" slope="0.000000"/>
        <vehicle id="up_2" x="13.491955" y="55.632856" angle="7.870063" type="v1" speed="6.162248" pos="15.961824" lane="-355113043#1_1" slope="0.000000"/>
    </timestep>
    <timestep time="5.40">
        <vehicle id="right_0" x="13.490968" y="55.634842" angle="142.175987" type="v1" speed="9.228250" pos="27.211423" lane="96027913#0_1" slope="0.000000"/>
        <vehicle id="right_1" x="13.490808" y="55.634958" angle="149.665547" type="v1" speed="4.464921" pos="10.737265" lane="96027913#0_1" slope="0.000000"/>
        <vehicle id="up_2" x="13.491957" y="55.632868" angle="7.870063" type="v1" speed="6.542789" pos="17.270381" lane="-355113043#1_1" slope="0.000000"/>
    </timestep>
    <timestep time="5.60">
        <vehicle id="right_0" x="13.490987" y="55.634829" angle="142.175987" type="v1" speed="9.671780" pos="29.145779" lane="96027913#0_1" slope="0.000000"/>
        <vehicle id="right_1" x="13.490816" y="55.634951" angle="148.647710" type="v1" speed="4.931204" pos="11.723506" lane="96027913#0_1" slope="0.000000"/>
        <vehicle id="up_2" x="13.491960" y="55.632880" angle="7.870063" type="v1" speed="6.861094" pos="18.642600" lane="-355113043#1_1" slope="0.000000"/>
    </timestep>
    <timestep time="5.80">
        <vehicle id="right_0" x="13.491008" y="55.634815" angle="142.175987" type="v1" speed="10.139969" pos="31.173773" lane="96027913#0_1" slope="0.000000"/>
        <vehicle id="right_1" x="13.490825" y="55.634943" angle="148.273590" type="v1" speed="5.224540" pos="12.768414" lane="96027913#0_1" slope="0.000000"/>
        <vehicle id="up_2" x="13.491962" y="55.632893" angle="7.935949" type="v1" speed="7.159938" pos="20.074588" lane="-355113043#1_1" slope="0.000000"/>
    </timestep>
    <timestep time="6.00">
        <vehicle id="right_0" x="13.491028" y="55.634800" angle="142.175987" type="v1" speed="10.484712" pos="33.270715" lane="96027913#0_1" slope="0.000000"/>
        <vehicle id="right_1" x="13.490835" y="55.634935" angle="147.726172" type="v1" speed="5.553389" pos="13.879091" lane="96027913#0_1" slope="0.000000"/>
        <vehicle id="up_2" x="13.491965" y="55.632907" angle="8.006515" type="v1" speed="7.641746" pos="21.602937" lane="-355113043#1_1" slope="0.000000"/>
    </timestep>
    <timestep time="6.20">
        <vehicle id="right_0" x="13.491050" y="55.634785" angle="142.175987" type="v1" speed="10.828214" pos="35.436358" lane="96027913#0_1" slope="0.000000"/>
        <vehicle id="right_1" x="13.490847" y="55.634926" angle="146.248839" type="v1" speed="6.057374" pos="15.090566" lane="96027913#0_1" slope="0.000000"/>
        <vehicle id="up_2" x="13.491968" y="55.632921" angle="8.080394" type="v1" speed="8.000608" pos="23.203058" lane="-355113043#1_1" slope="0.000000"/>
    </timestep>
    <timestep time="6.40">
        <vehicle id="right_0" x="13.491072" y="55.634770" angle="142.005410" type="v1" speed="11.163196" pos="37.668997" lane="96027913#0_1" slope="0.000000"/>
        <vehicle id="right_1" x="13.490860" y="55.634918" angle="144.678466" type="v1" speed="6.432925" pos="16.377151" lane="96027913#0_1" slope="0.000000"/>
        <vehicle id="up_2" x="13.491972" y="55.632936" angle="8.100918" type="v1" speed="8.366830" pos="24.876424" lane="-355113043#1_1" slope="0.000000"/>
    </timestep>
    <timestep time="6.60">
        <vehicle id="right_0" x="13.491096" y="55.634754" angle="141.157949" type="v1" speed="11.581848" pos="39.985367" lane="96027913#0_1" slope="0.000000"/>
        <vehicle id="right_1" x="13.490874" y="55.634908" angle="143.006297" type="v1" speed="6.853849" pos="17.747921" lane="96027913#0_1" slope="0.000000"/>
        <vehicle id="up_2" x="13.491975" y="55.632952" angle="8.100918" type="v1" speed="8.869782" pos="26.650381" lane="-355113043#1_1" slope="0.000000"/>
    </timestep>
    <timestep time="6.80">
        <vehicle id="right_0" x="13.491121" y="55.634738" angle="140.346764" type="v1" speed="12.005553" pos="42.386477" lane="96027913#0_1" slope="0.000000"/>
        <vehicle id="right_1" x="13.490888" y="55.634898" angle="142.175987" type="v1" speed="7.331911" pos="19.214303" lane="96027913#0_1" slope="0.000000"/>
        <vehicle id="up_2" x="13.491978" y="55.632968" angle="8.100918" type="v1" speed="9.234466" pos="28.497274" lane="-355113043#1_1" slope="0.000000"/>
    </timestep>
    <timestep time="7.00">
        <vehicle id="right_0" x="13.491147" y="55.634721" angle="140.346764" type="v1" speed="12.295666" pos="44.845611" lane="96027913#0_1" slope="0.000000"/>
        <vehicle id="right_1" x="13.490904" y="55.634887" angle="142.175987" type="v1" speed="7.594299" pos="20.733163" lane="96027913#0_1" slope="0.000000"/>
        <vehicle id="up_2" x="13.491982" y="55.632986" angle="8.100918" type="v1" speed="9.648700" pos="30.427014" lane="-355113043#1_1" slope="0.000000"/>
    </timestep>
    <timestep time="7.20">
        <vehicle id="right_0" x="13.491173" y="55.634704" angle="140.346764" type="v1" speed="12.714051" pos="47.388421" lane="96027913#0_1" slope="0.000000"/>
        <vehicle id="right_1" x="13.490919" y="55.634876" angle="142.175987" type="v1" speed="8.003955" pos="22.333954" lane="96027913#0_1" slope="0.000000"/>
        <vehicle id="up_2" x="13.491986" y="55.633004" angle="8.100918" type="v1" speed="10.029532" pos="32.432920" lane="-355113043#1_1" slope="0.000000"/>
    </timestep>
    <timestep time="7.40">
        <vehicle id="right_0" x="13.491200" y="55.634686" angle="140.346764" type="v1" speed="13.050478" pos="49.998516" lane="96027913#0_1" slope="0.000000"/>
        <vehicle id="right_1" x="13.490936" y="55.634865" angle="142.175987" type="v1" speed="8.348765" pos="24.003707" lane="96027913#0_1" slope="0.000000"/>
        <vehicle id="up_2" x="13.491990" y="55.633022" angle="8.100918" type="v1" speed="10.311426" pos="34.495206" lane="-355113043#1_1" slope="0.000000"/>
    </timestep>
    <timestep time="7.60">
        <vehicle id="right_0" x="13.491228" y="55.634668" angle="140.346764" type="v1" speed="13.561606" pos="52.710838" lane="96027913#0_1" slope="0.000000"/>
        <vehicle id="right_1" x="13.490953" y="55.634853" angle="142.175987" type="v1" speed="8.687294" pos="25.741166" lane="96027913#0_1" slope="0.000000"/>
        <vehicle id="up_2" x="13.491994" y="55.633041" angle="8.100918" type="v1" speed="10.655786" pos="36.626363" lane="-355113043#1_1" slope="0.000000"/>
    </timestep>
    <timestep time="7.80">
        <vehicle id="right_0" x="13.491257" y="55.634649" angle="140.346764" type="v1" speed="13.945406" pos="55.499919" lane="96027913#0_1" slope="0.000000"/>
        <vehicle id="right_1" x="13.490971" y="55.634840" angle="142.175987" type="v1" speed="9.014221" pos="27.544010" lane="96027913#0_1" slope="0.000000"/>
        <vehicle id="up_2" x="13.491998" y="55.633061" angle="8.100918" type="v1" speed="11.032142" pos="38.832791" lane="-355113043#1_1" slope="0.000000"/>
    </timestep>
    <timestep time="8.00">
        <vehicle id="right_0" x="13.491287" y="55.634630" angle="140.346764" type="v1" speed="14.400582" pos="58.380035" lane="96027913#0_1" slope="0.000000"/>
        <vehicle id="right_1" x="13.490990" y="55.634827" angle="142.175987" type="v1" speed="9.329230" pos="29.409856" lane="96027913#0_1" slope="0.000000"/>
        <vehicle id="up_2" x="13.492003" y="55.633081" angle="8.410251" type="v1" speed="11.206894" pos="41.074170" lane="-355113043#1_1" slope="0.000000"/>
        <vehicle id="up_3" x="13.491935" y="55.632759" angle="7.870063" type="v1" speed="0.000000" pos="5.100000" lane="-355113043#1_1" slope="0.000000"/>
    </timestep>
    <timestep time="8.20">
        <vehicle id="right_0" x="13.491317" y="55.634610" angle="140.346764" type="v1" speed="14.816835" pos="61.343402" lane="96027913#0_1" slope="0.000000"/>
        <vehicle id="right_1" x="13.491010" y="55.634813" angle="142.175987" type="v1" speed="9.820570" pos="31.373970" lane="96027913#0_1" slope="0.000000"/>
        <vehicle id="up_2" x="13.492011" y="55.633101" angle="10.968008" type="v1" speed="11.252305" pos="43.324631" lane="-355113043#1_1" slope="0.000000"/>
        <vehicle id="up_3" x="13.491935" y="55.632760" angle="7.870063" type="v1" speed="0.473283" pos="5.194657" lane="-355113043#1_1" slope="0.000000"/>
    </timestep>
    <timestep time="8.40">
        <vehicle id="right_0" x="13.491349" y="55.634589" angle="140.385231" type="v1" speed="15.184643" pos="64.380331" lane="96027913#0_1" slope="0.000000"/>
        <vehicle id="right_1" x="13.491030" y="55.634799" angle="142.175987" type="v1" speed="10.290061" pos="33.431982" lane="96027913#0_1" slope="0.000000"/>
        <vehicle id="up_2" x="13.492018" y="55.633121" angle="13.531138" type="v1" speed="11.276432" pos="45.579917" lane="-355113043#1_1" slope="0.000000"/>
        <vehicle id="up_3" x="13.491935" y="55.632762" angle="7.870063" type="v1" speed="0.915860" pos="5.377829" lane="-355113043#1_1" slope="0.000000"/>
    </timestep>
    <timestep time="8.60">
        <vehicle id="right_0" x="13.491381" y="55.634568" angle="140.442084" type="v1" speed="15.475411" pos="67.475413" lane="96027913#0_1" slope="0.000000"/>
        <vehicle id="right_1" x="13.491051" y="55.634784" angle="142.175987" type="v1" speed="10.700047" pos="35.571991" lane="96027913#0_1" slope="0.000000"/>
        <vehicle id="up_2" x="13.492026" y="55.633141" angle="13.782662" type="v1" speed="11.385298" pos="47.856977" lane="-355113043#1_1" slope="0.000000"/>
        <vehicle id="up_3" x="13.491936" y="55.632764" angle="7.870063" type="v1" speed="1.340766" pos="5.645982" lane="-355113043#1_1" slope="0.000000"/>
    </timestep>
    <timestep time="8.80">
        <vehicle id="right_0" x="13.491414" y="55.634547" angle="140.442084" type="v1" speed="15.885582" pos="70.652530" lane="96027913#0_1" slope="0.000000"/>
        <vehicle id="right_1" x="13.491074" y="55.634769" angle="141.960160" type="v1" speed="11.103514" pos="37.792694" lane="96027913#0_1" slope="0.000000"/>
        <vehicle id="up_2" x="13.492034" y="55.633160" angle="13.782662" type="v1" speed="11.201577" pos="50.097293" lane="-355113043#1_1" slope="0.000000"/>
        <vehicle id="up_3" x="13.491936" y="55.632767" angle="7.870063" type="v1" speed="1.794848" pos="6.004951" lane="-355113043#1_1" slope="0.000000"/>
    </timestep>
    <timestep time="9.00">
        <vehicle id="right_0" x="13.491447" y="55.634525" angle="140.442084" type="v1" speed="16.182175" pos="73.888964" lane="96027913#0_1" slope="0.000000"/>
        <vehicle id="right_1" x="13.491097" y="55.634753" angle="141.119533" type="v1" speed="11.488351" pos="40.090364" lane="96027913#0_1" slope="0.000000"/>
        <vehicle id="up_2" x="13.492042" y="55.633180" angle="14.174015" type="v1" speed="11.241889" pos="1.705670" lane=":267701934_7_0" slope="0.000000"/>
        <vehicle id="up_3" x="13.491937" y="55.632771" angle="7.870063" type="v1" speed="2.094029" pos="6.423757" lane="-355113043#1_1" slope="0.000000"/>
    </timestep>
    <timestep time="9.20">
        <vehicle id="right_0" x="13.491481" y="55.634502" angle="140.442084" type="v1" speed="16.578833" pos="77.204731" lane="96027913#0_1" slope="0.000000"/>
        <vehicle id="right_1" x="13.491122" y="55.634737" angle="140.346764" type="v1" speed="11.943724" pos="42.479109" lane="96027913#0_1" slope="0.000000"/>
        <vehicle id="up_2" x="13.492052" y="55.633200" angle="15.199434" type="v1" speed="11.633731" pos="4.032417" lane=":267701934_7_0" slope="0.000000"/>
        <vehicle id="up_3" x="13.491938" y="55.632775" angle="7.870063" type="v1" speed="2.413648" pos="6.906487" lane="-355113043#1_1" slope="0.000000"/>
    </timestep>
    <timestep time="9.40">
        <vehicle id="right_0" x="13.491516" y="55.634479" angle="140.442084" type="v1" speed="16.967268" pos="80.598185" lane="96027913#0_1" slope="0.000000"/>
        <vehicle id="right_1" x="13.491148" y="55.634720" angle="140.346764" type="v1" speed="12.423043" pos="44.963718" lane="96027913#0_1" slope="0.000000"/>
        <vehicle id="up_2" x="13.492064" y="55.633221" angle="17.899698" type="v1" speed="12.130587" pos="6.458534" lane=":267701934_7_0" slope="0.000000"/>
        <vehicle id="up_3" x="13.491939" y="55.632780" angle="7.870063" type="v1" speed="2.682028" pos="7.442892" lane="-355113043#1_1" slope="0.000000"/>
    </timestep>
    <timestep time="9.60">
        <vehicle id="right_0" x="13.491552" y="55.634456" angle="140.442084" type="v1" speed="17.305783" pos="84.059341" lane="96027913#0_1" slope="0.000000"/>
        <vehicle id="right_1" x="13.491174" y="55.634703" angle="140.346764" type="v1" speed="12.689837" pos="47.501685" lane="96027913#0_1" slope="0.000000"/>
        <vehicle id="up_2" x="13.492079" y="55.633241" angle="21.495083" type="v1" speed="12.406959" pos="8.939926" lane=":267701934_7_0" slope="0.000000"/>
        <vehicle id="up_3" x="13.491940" y="55.632786" angle="7.870063" type="v1" speed="3.049953" pos="8.052883" lane="-355113043#1_1" slope="0.000000"/>
    </timestep>
    <timestep time="9.80">
        <vehicle id="right_0" x="13.491589" y="55.634432" angle="140.442084" type="v1" speed="17.660826" pos="87.591507" lane="96027913#0_1" slope="0.000000"/>
        <vehicle id="right_1" x="13.491201" y="55.634686" angle="140.346764" type="v1" speed="13.018591" pos="50.105403" lane="96027913#0_1" slope="0.000000"/>
        <vehicle id="up_2" x="13.492094" y="55.633263" angle="23.191573" type="v1" speed="12.883787" pos="11.516683" lane=":267701934_7_0" slope="0.000000"/>
        <vehicle id="up_3" x="13.491942" y="55.632792" angle="7.870063" type="v1" speed="3.505741" pos="8.754031" lane="-355113043#1_1" slope="0.000000"/>
    </timestep>
    <timestep time="10.00">
        <vehicle id="right_0" x="13.491626" y="55.634408" angle="140.442084" type="v1" speed="18.114530" pos="91.214413" lane="96027913#0_1" slope="0.000000"/>
        <vehicle id="right_1" x="13.491229" y="55.634668" angle="140.346764" type="v1" speed="13.460864" pos="52.797576" lane="96027913#0_1" slope="0.000000"/>
        <vehicle id="up_2" x="13.492109" y="55.633285" angle="22.972157" type="v1" speed="13.172028" pos="2.621089" lane="-24626686#2_1" slope="0.000000"/>
        <vehicle id="up_3" x="13.491943" y="55.632799" angle="7.870063" type="v1" speed="3.863015" pos="9.526634" lane="-355113043#1_1" slope="0.000000"/>
    </timestep>
    <timestep time="10.20">
        <vehicle id="right_0" x="13.491664" y="55.634382" angle="140.442084" type="v1" speed="18.586074" pos="94.931627" lane="96027913#0_1" slope="0.000000"/>
        <vehicle id="right_1" x="13.491257" y="55.634649" angle="140.346764" type="v1" speed="13.769056" pos="55.551387" lane="96027913#0_1" slope="0.000000"/>
        <vehicle id="up_2" x="13.492126" y="55.633308" angle="23.165095" type="v1" speed="13.577952" pos="5.336679" lane="-24626686#2_1" slope="0.000000"/>
        <vehicle id="up_3" x="13.491945" y="55.632806" angle="7.870063" type="v1" speed="4.314503" pos="10.389535" lane="-355113043#1_1" slope="0.000000"/>
    </timestep>
    <timestep time="10.40">
        <vehicle id="right_0" x="13.491704" y="55.634357" angle="140.442084" type="v1" speed="18.940159" pos="98.719659" lane="96027913#0_1" slope="0.000000"/>
        <vehicle id="right_1" x="13.491287" y="55.634630" angle="140.346764" type="v1" speed="14.085304" pos="58.368448" lane="96027913#0_1" slope="0.000000"/>
        <vehicle id="up_2" x="13.492148" y="55.633330" angle="27.554182" type="v1" speed="13.968838" pos="8.130447" lane="-24626686#2_1" slope="0.000000"/>
        <vehicle id="up_3" x="13.491946" y="55.632815" angle="7.870063" type="v1" speed="4.766791" pos="11.342893" lane="-355113043#1_1" slope="0.000000"/>
    </timestep>
    <timestep time="10.60">
        <vehicle id="right_0" x="13.491743" y="55.634331" angle="140.442084" type="v1" speed="19.220805" pos="102.563820" lane="96027913#0_1" slope="0.000000"/>
        <vehicle id="right_1" x="13.491317" y="55.634610" angle="140.346764" type="v1" speed="14.489826" pos="61.266414" lane="96027913#0_1" slope="0.000000"/>
        <vehicle id="up_2" x="13.492170" y="55.633353" angle="30.478751" type="v1" speed="14.480618" pos="11.026570" lane="-24626686#2_1" slope="0.000000"/>
        <vehicle id="up_3" x="13.491948" y="55.632824" angle="7.870063" type="v1" speed="5.143494" pos="12.371592" lane="-355113043#1_1" slope="0.000000"/>
    </timestep>
    <timestep time="10.80">
        <vehicle id="right_0" x="13.491784" y="55.634304" angle="140.424805" type="v1" speed="19.532226" pos="0.060265" lane=":469417306_1_0" slope="0.000000"/>
        <vehicle id="right_1" x="13.491347" y="55.634590" angle="140.382601" type="v1" speed="14.879918" pos="64.242397" lane="96027913#0_1" slope="0.000000"/>
        <vehicle id="up_2" x="13.492193" y="55.633376" angle="30.478751" type="v1" speed="14.826076" pos="13.991785" lane="-24626686#2_1" slope="0.000000"/>
        <vehicle id="up_3" x="13.491950" y="55.632834" angle="7.870063" type="v1" speed="5.581797" pos="13.487951" lane="-355113043#1_1" slope="0.000000"/>
    </timestep>
    <timestep time="11.00">
        <vehicle id="right_0" x="13.491825" y="55.634278" angle="139.900079" type="v1" speed="19.807577" pos="3.711781" lane="96027913#2_1" slope="0.000000"/>
        <vehicle id="right_1" x="13.491379" y="55.634570" angle="140.440593" type="v1" speed="15.209819" pos="67.284361" lane="96027913#0_1" slope="0.000000"/>
        <vehicle id="up_2" x="13.492217" y="55.633400" angle="30.478751" type="v1" speed="15.110664" pos="17.013918" lane="-24626686#2_1" slope="0.000000"/>
        <vehicle id="up_3" x="13.491952" y="55.632845" angle="7.870063" type="v1" speed="5.896609" pos="14.667273" lane="-355113043#1_1" slope="0.000000"/>
    </timestep>
    <timestep time="11.20">
        <vehicle id="right_0" x="13.491868" y="55.634250" angle="139.832592" type="v1" speed="20.300726" pos="7.771926" lane="96027913#2_1" slope="0.000000"/>
        <vehicle id="right_1" x="13.491411" y="55.634549" angle="140.442084" type="v1" speed="15.476496" pos="70.379660" lane="96027913#0_1" slope="0.000000"/>
        <vehicle id="up_2" x="13.492241" y="55.633424" angle="30.478751" type="v1" speed="15.446678" pos="20.103254" lane="-24626686#2_1" slope="0.000000"/>
        <vehicle id="up_3" x="13.491955" y="55.632856" angle="7.870063" type="v1" speed="6.381700" pos="15.943613" lane="-355113043#1_1" slope="0.000000"/>
    </timestep>
    <timestep time="11.40">
        <vehicle id="right_0" x="13.491911" y="55.634223" angle="139.832592" type="v1" speed="20.605350" pos="11.892996" lane="96027913#2_1" slope="0.000000"/>
        <vehicle id="right_1" x="13.491443" y="55.634527" angle="140.442084" type="v1" speed="15.778906" pos="73.535441" lane="96027913#0_1" slope="0.000000"/>
        <vehicle id="up_2" x="13.492266" y="55.633449" angle="30.595278" type="v1" speed="15.778746" pos="23.259003" lane="-24626686#2_1" slope="0.000000"/>
        <vehicle id="up_3" x="13.491957" y="55.632868" angle="7.870063" type="v1" speed="6.710782" pos="17.285769" lane="-355113043#1_1" slope="0.000000"/>
    </timestep>
    <timestep time="11.60">
        <vehicle id="right_0" x="13.491955" y="55.634194" angle="139.832592" type="v1" speed="21.015911" pos="16.096178" lane="96027913#2_1" slope="0.000000"/>
        <vehicle id="right_1" x="13.491477" y="55.634505" angle="140.442084" type="v1" speed="16.127001" pos="76.760842" lane="96027913#0_1" slope="0.000000"/>
        <vehicle id="up_2" x="13.492291" y="55.633474" angle="30.677280" type="v1" speed="16.056582" pos="26.470319" lane="-24626686#2_1" slope="0.000000"/>
        <vehicle id="up_3" x="13.491960" y="55.632881" angle="7.872901" type="v1" speed="7.116445" pos="18.709058" lane="-355113043#1_1" slope="0.000000"/>
    </timestep>
    <timestep time="11.80">
        <vehicle id="right_0" x="13.491999" y="55.634166" angle="139.832592" type="v1" speed="20.918040" pos="20.279786" lane="96027913#2_1" slope="0.000000"/>