<?xml version="1.0" encoding="UTF-8"?>

<!-- generated on 2022-08-02 14:42:41 by Eclipse SUMO GUI Version 1.10.0
<configuration xmlns:xsi="http://www.w3.org/2001/XMLSchema-instance" xsi:noNamespaceSchemaLocation="http://sumo.dlr.de/xsd/sumoConfiguration.xsd">

    <input>
        <net-file value="./input/Veberod_intersection_pedestrian.net.xml"/>
        <route-files value="./input/Veberod_intersection_pedestrian.rou.xml,./input/Veberod_intersection_pedestrian.trip.xml"/>
        <additional-files value="./input/Veberod_intersection_pedestrian.add.xml"/>
    </input>

    <output>
        <fcd-output value="./output/veberod-fcd.xml"/>
        <fcd-output.geo value="true"/>
    </output>

    <time>
        <begin value="0"/>
        <end value="3600"/>
        <step-length value="1"/>
    </time>

    <report>
        <no-warnings value="true"/>
        <no-step-log value="true"/>
    </report>

    <traci_server>
        <remote-port value="59706"/>
    </traci_server>

    <gui_only>
        <gui-settings-file value="./input/viewsettings.xml"/>
        <tracker-interval value="1"/>
    </gui_only>

</configuration>
-->

<fcd-export xmlns:xsi="http://www.w3.org/2001/XMLSchema-instance" xsi:noNamespaceSchemaLocation="http://sumo.dlr.de/xsd/fcd_file.xsd">
    <timestep time="0.00"/>
    <timestep time="1.00"/>
    <timestep time="2.00">
        <person id="ped_0" x="13.492742" y="55.634027" angle="207.147673" speed="0.000000" pos="17.185839" edge="34992983#2" slope="0.000000"/>
    </timestep>
    <timestep time="3.00">
        <person id="ped_0" x="13.492734" y="55.634018" angle="207.147673" speed="1.153249" pos="18.339087" edge="34992983#2" slope="0.000000"/>
    </timestep>
    <timestep time="4.00">
        <person id="ped_0" x="13.492726" y="55.634008" angle="207.147673" speed="1.203352" pos="19.542439" edge="34992983#2" slope="0.000000"/>
    </timestep>
    <timestep time="5.00">
        <vehicle id="up_0" x="13.491935" y="55.632759" angle="7.870063" type="v1" speed="0.000000" pos="5.100000" lane="-355113043#1_1" slope="0.000000"/>
        <person id="ped_0" x="13.492716" y="55.633997" angle="207.147673" speed="1.390559" pos="20.932998" edge="34992983#2" slope="0.000000"/>
    </timestep>
    <timestep time="6.00">
        <vehicle id="up_0" x="13.491939" y="55.632777" angle="7.870063" type="v1" speed="2.014978" pos="7.114978" lane="-355113043#1_1" slope="0.000000"/>
        <person id="ped_0" x="13.492708" y="55.633987" angle="207.147673" speed="1.265392" pos="22.198390" edge="34992983#2" slope="0.000000"/>
    </timestep>
    <timestep time="7.00">
        <vehicle id="up_0" x="13.491946" y="55.632812" angle="7.870063" type="v1" speed="3.837898" pos="10.952876" lane="-355113043#1_1" slope="0.000000"/>
        <person id="ped_0" x="13.492699" y="55.633977" angle="207.147673" speed="1.237744" pos="23.436134" edge="34992983#2" slope="0.000000"/>
    </timestep>
    <timestep time="8.00">
        <vehicle id="up_0" x="13.491955" y="55.632860" angle="7.870063" type="v1" speed="5.370366" pos="16.323242" lane="-355113043#1_1" slope="0.000000"/>
        <vehicle id="up_1" x="13.491935" y="55.632759" angle="7.870063" type="v1" speed="0.000000" pos="5.100000" lane="-355113043#1_1" slope="0.000000"/>
        <person id="ped_0" x="13.492689" y="55.633965" angle="207.147673" speed="1.391083" pos="24.827217" edge="34992983#2" slope="0.000000"/>
    </timestep>
    <timestep time="9.00">
        <vehicle id="up_0" x="13.491970" y="55.632929" angle="8.100918" type="v1" speed="7.795034" pos="24.118276" lane="-355113043#1_1" slope="0.000000"/>
        <vehicle id="up_1" x="13.491937" y="55.632772" angle="7.870063" type="v1" speed="1.444826" pos="6.544826" lane="-355113043#1_1" slope="0.000000"/>
        <person id="ped_1" x="13.492811" y="55.634107" angle="207.147673" speed="0.000000" pos="7.256479" edge="34992983#2" slope="0.000000"/>
        <person id="ped_0" x="13.492681" y="55.633956" angle="207.147673" speed="1.194717" pos="26.021935" edge="34992983#2" slope="0.000000"/>
    </timestep>
    <timestep time="10.00">
        <vehicle id="up_0" x="13.491988" y="55.633015" angle="8.100918" type="v1" speed="9.559280" pos="33.677556" lane="-355113043#1_1" slope="0.000000"/>
        <vehicle id="up_1" x="13.491943" y="55.632798" angle="7.870063" type="v1" speed="2.874362" pos="9.419187" lane="-355113043#1_1" slope="0.000000"/>
        <person id="ped_1" x="13.492803" y="55.634098" angle="207.147673" speed="1.091789" pos="8.348268" edge="34992983#2" slope="0.000000"/>
        <person id="ped_0" x="13.492672" y="55.633945" angle="207.147673" speed="1.333859" pos="27.355793" edge="34992983#2" slope="0.000000"/>
    </timestep>
    <timestep time="11.00">
        <vehicle id="right_3" x="13.490762" y="55.635001" angle="157.287464" type="v1" speed="0.000000" pos="5.100000" lane="96027913#0_1" slope="0.000000"/>
        <vehicle id="up_0" x="13.492016" y="55.633113" angle="12.621137" type="v1" speed="11.101078" pos="44.778634" lane="-355113043#1_1" slope="0.000000"/>
        <vehicle id="up_1" x="13.491952" y="55.632843" angle="7.870063" type="v1" speed="5.026220" pos="14.445407" lane="-355113043#1_1" slope="0.000000"/>
        <vehicle id="up_2" x="13.491935" y="55.632759" angle="7.870063" type="v1" speed="0.000000" pos="5.100000" lane="-355113043#1_1" slope="0.000000"/>
        <person id="ped_1" x="13.492795" y="55.634088" angle="207.147673" speed="1.223949" pos="9.572217" edge="34992983#2" slope="0.000000"/>
        <person id="ped_0" x="13.492664" y="55.633935" angle="207.147673" speed="1.194195" pos="28.549988" edge="34992983#2" slope="0.000000"/>
    </timestep>
    <timestep time="12.00">
        <vehicle id="right_3" x="13.490774" y="55.634988" angle="154.198516" type="v1" speed="1.727543" pos="6.827543" lane="96027913#0_1" slope="0.000000"/>
        <vehicle id="up_0" x="13.492056" y="55.633207" angle="16.028933" type="v1" speed="10.704128" pos="4.842762" lane=":267701934_7_0" slope="0.000000"/>
        <vehicle id="up_1" x="13.491964" y="55.632901" angle="7.976138" type="v1" speed="6.499599" pos="20.945006" lane="-355113043#1_1" slope="0.000000"/>
        <vehicle id="up_2" x="13.491939" y="55.632780" angle="7.870063" type="v1" speed="2.289232" pos="7.389232" lane="-355113043#1_1" slope="0.000000"/>
        <person id="ped_1" x="13.492787" y="55.634079" angle="207.147673" speed="1.111178" pos="10.683395" edge="34992983#2" slope="0.000000"/>
        <person id="ped_0" x="13.492655" y="55.633926" angle="207.147673" speed="1.214435" pos="29.764423" edge="34992983#2" slope="0.000000"/>
    </timestep>
    <timestep time="13.00">
        <vehicle id="right_3" x="13.490802" y="55.634963" angle="150.365552" type="v1" speed="3.231906" pos="10.059448" lane="96027913#0_1" slope="0.000000"/>
        <vehicle id="up_0" x="13.492131" y="55.633313" angle="24.167995" type="v1" speed="12.663338" pos="5.976100" lane="-24626686#2_1" slope="0.000000"/>
        <vehicle id="up_1" x="13.491980" y="55.632977" angle="8.100918" type="v1" speed="8.529340" pos="29.474346" lane="-355113043#1_1" slope="0.000000"/>
        <vehicle id="up_2" x="13.491948" y="55.632821" angle="7.870063" type="v1" speed="4.609346" pos="11.998578" lane="-355113043#1_1" slope="0.000000"/>
        <vehicle id="up_4" x="13.491935" y="55.632759" angle="7.870063" type="v1" speed="0.000000" pos="5.100000" lane="-355113043#1_1" slope="0.000000"/>
        <person id="ped_1" x="13.492780" y="55.634071" angle="207.147673" speed="1.086642" pos="11.770037" edge="34992983#2" slope="0.000000"/>
        <person id="ped_0" x="13.492646" y="55.633915" angle="207.147673" speed="1.276432" pos="31.040855" edge="34992983#2" slope="0.000000"/>
    </timestep>
    <timestep time="14.00">
        <vehicle id="right_3" x="13.490855" y="55.634921" angle="145.283441" type="v1" speed="5.822080" pos="15.881529" lane="96027913#0_1" slope="0.000000"/>
        <vehicle id="up_0" x="13.492245" y="55.633428" angle="30.492442" type="v1" speed="14.692963" pos="20.669063" lane="-24626686#2_1" slope="0.000000"/>
        <vehicle id="up_1" x="13.491999" y="55.633065" angle="8.100918" type="v1" speed="9.857621" pos="39.331967" lane="-355113043#1_1" slope="0.000000"/>
        <vehicle id="up_2" x="13.491959" y="55.632878" angle="7.870063" type="v1" speed="6.387613" pos="18.386191" lane="-355113043#1_1" slope="0.000000"/>
        <vehicle id="up_4" x="13.491936" y="55.632766" angle="7.870063" type="v1" speed="0.736875" pos="5.836875" lane="-355113043#1_1" slope="0.000000"/>
        <person id="ped_1" x="13.492771" y="55.634061" angle="207.147673" speed="1.210660" pos="12.980697" edge="34992983#2" slope="0.000000"/>
        <person id="ped_0" x="13.492637" y="55.633905" angle="207.147673" speed="1.329083" pos="32.369938" edge="34992983#2" slope="0.000000"/>
    </timestep>
    <timestep time="15.00">
        <vehicle id="right_3" x="13.490937" y="55.634864" angle="142.175987" type="v1" speed="8.218593" pos="24.100122" lane="96027913#0_1" slope="0.000000"/>
        <vehicle id="up_0" x="13.492367" y="55.633551" angle="30.677280" type="v1" speed="15.534410" pos="36.203473" lane="-24626686#2_1" slope="0.000000"/>
        <vehicle id="up_1" x="13.492035" y="55.633162" angle="13.782662" type="v1" speed="11.019958" pos="50.351925" lane="-355113043#1_1" slope="0.000000"/>
        <vehicle id="up_2" x="13.491974" y="55.632949" angle="8.100918" type="v1" speed="7.881834" pos="26.268025" lane="-355113043#1_1" slope="0.000000"/>
        <vehicle id="up_4" x="13.491942" y="55.632794" angle="7.870063" type="v1" speed="3.145918" pos="8.982793" lane="-355113043#1_1" slope="0.000000"/>
        <person id="ped_1" x="13.492763" y="55.634052" angle="207.147673" speed="1.146519" pos="14.127216" edge="34992983#2" slope="0.000000"/>
        <person id="ped_0" x="13.492629" y="55.633896" angle="212.242468" speed="1.157578" pos="33.527516" edge="34992983#2" slope="0.000000"/>
        <person id="ped_2" x="13.492257" y="55.633953" angle="139.720137" speed="0.000000" pos="48.841031" edge="96027913#2" slope="0.000000"/>
    </timestep>
    <timestep time="16.00">
        <vehicle id="right_3" x="13.491042" y="55.634791" angle="142.175987" type="v1" speed="10.508128" pos="34.608250" lane="96027913#0_1" slope="0.000000"/>
        <vehicle id="up_0" x="13.492459" y="55.633645" angle="29.312546" type="v1" speed="11.854078" pos="5.567551" lane="-24626686#1_1" slope="0.000000"/>
        <vehicle id="up_1" x="13.492091" y="55.633258" angle="23.132606" type="v1" speed="11.222740" pos="10.934665" lane=":267701934_7_0" slope="0.000000"/>
        <vehicle id="up_2" x="13.491993" y="55.633035" angle="8.100918" type="v1" speed="9.712945" pos="35.980970" lane="-355113043#1_1" slope="0.000000"/>
        <vehicle id="up_4" x="13.491952" y="55.632845" angle="7.870063" type="v1" speed="5.660680" pos="14.643473" lane="-355113043#1_1" slope="0.000000"/>
        <vehicle id="up_5" x="13.491935" y="55.632759" angle="7.870063" type="v1" speed="0.000000" pos="5.100000" lane="-355113043#1_1" slope="0.000000"/>
        <person id="ped_1" x="13.492755" y="55.634042" angle="207.147673" speed="1.214106" pos="15.341321" edge="34992983#2" slope="0.000000"/>
        <person id="ped_0" x="13.492619" y="55.633887" angle="212.242468" speed="1.211459" pos="34.738975" edge="34992983#2" slope="0.000000"/>
        <person id="ped_2" x="13.492269" y="55.633945" angle="139.720137" speed="1.139947" pos="49.980978" edge="96027913#2" slope="0.000000"/>
    </timestep>
    <timestep time="17.00">
        <vehicle id="right_3" x="13.491175" y="55.634703" angle="140.346764" type="v1" speed="12.926440" pos="47.534689" lane="96027913#0_1" slope="0.000000"/>
        <vehicle id="up_0" x="13.492514" y="55.633704" angle="29.312546" type="v1" speed="7.354078" pos="12.921629" lane="-24626686#1_1" slope="0.000000"/>
        <vehicle id="up_1" x="13.492186" y="55.633369" angle="30.478751" type="v1" speed="13.707023" pos="13.111688" lane="-24626686#2_1" slope="0.000000"/>
        <vehicle id="up_2" x="13.492022" y="55.633130" angle="13.782662" type="v1" speed="10.670144" pos="46.651114" lane="-355113043#1_1" slope="0.000000"/>
        <vehicle id="up_4" x="13.491967" y="55.632914" angle="8.042177" type="v1" speed="7.731848" pos="22.375321" lane="-355113043#1_1" slope="0.000000"/>
        <vehicle id="up_5" x="13.491938" y="55.632776" angle="7.870063" type="v1" speed="1.904161" pos="7.004161" lane="-355113043#1_1" slope="0.000000"/>
        <person id="ped_0" x="13.492614" y="55.633876" angle="247.650310" speed="1.317141" pos="1.086117" edge=":267701936_w0" slope="0.000000"/>
        <person id="ped_1" x="13.492748" y="55.634033" angle="207.147673" speed="1.070172" pos="16.411493" edge="34992983#2" slope="0.000000"/>
        <person id="ped_2" x="13.492280" y="55.633938" angle="139.720137" speed="1.031702" pos="51.012680" edge="96027913#2" slope="0.000000"/>
    </timestep>
    <timestep time="18.00">
        <vehicle id="right_3" x="13.491329" y="55.634602" angle="140.349442" type="v1" speed="14.968355" pos="62.503044" lane="96027913#0_1" slope="0.000000"/>
        <vehicle id="up_0" x="13.492606" y="55.633770" angle="39.939609" type="v1" speed="9.260266" pos="6.181895" lane=":267701936_2_0" slope="0.000000"/>
        <vehicle id="up_1" x="13.492307" y="55.633490" angle="30.677280" type="v1" speed="15.434313" pos="28.546001" lane="-24626686#2_1" slope="0.000000"/>
        <vehicle id="up_2" x="13.492063" y="55.633219" angle="17.597002" type="v1" speed="10.256195" pos="6.267309" lane=":267701934_7_0" slope="0.000000"/>
        <vehicle id="up_4" x="13.491985" y="55.632998" angle="8.100918" type="v1" speed="9.453649" pos="31.828970" lane="-355113043#1_1" slope="0.000000"/>
        <vehicle id="up_5" x="13.491945" y="55.632810" angle="7.870063" type="v1" speed="3.785940" pos="10.790101" lane="-355113043#1_1" slope="0.000000"/>
        <person id="ped_0" x="13.492597" y="55.633872" angle="247.650310" speed="1.171969" pos="2.258086" edge=":267701936_w0" slope="0.000000"/>
        <person id="ped_1" x="13.492741" y="55.634025" angle="207.147673" speed="1.007884" pos="17.419377" edge="34992983#2" slope="0.000000"/>
        <person id="ped_2" x="13.492292" y="55.633930" angle="139.720137" speed="1.169516" pos="52.182196" edge="96027913#2" slope="0.000000"/>
    </timestep>
    <timestep time="19.00">
        <vehicle id="right_3" x="13.491504" y="55.634487" angle="140.442084" type="v1" speed="16.930568" pos="79.433612" lane="96027913#0_1" slope="0.000000"/>
        <vehicle id="right_6" x="13.490762" y="55.635001" angle="157.287464" type="v1" speed="0.000000" pos="5.100000" lane="96027913#0_1" slope="0.000000"/>
        <vehicle id="up_0" x="13.492706" y="55.633858" angle="32.419637" type="v1" speed="11.674608" pos="0.306503" lane="-34992983#3_1" slope="0.000000"/>
        <vehicle id="up_1" x="13.492409" y="55.633593" angle="30.677280" type="v1" speed="13.033690" pos="41.579691" lane="-24626686#2_1" slope="0.000000"/>
        <vehicle id="up_2" x="13.492134" y="55.633316" angle="24.794996" type="v1" speed="11.638050" pos="6.375360" lane="-24626686#2_1" slope="0.000000"/>
        <vehicle id="up_4" x="13.492007" y="55.633091" angle="9.744646" type="v1" speed="10.419817" pos="42.248787" lane="-355113043#1_1" slope="0.000000"/>
        <vehicle id="up_5" x="13.491955" y="55.632859" angle="7.870063" type="v1" speed="5.413843" pos="16.203944" lane="-355113043#1_1" slope="0.000000"/>
        <person id="ped_0" x="13.492579" y="55.633866" angle="230.836629" speed="1.250554" pos="3.508640" edge=":267701936_w0" slope="0.000000"/>
        <person id="ped_1" x="13.492733" y="55.634016" angle="207.147673" speed="1.167412" pos="18.586789" edge="34992983#2" slope="0.000000"/>
        <person id="ped_2" x="13.492306" y="55.633922" angle="139.720137" speed="1.262032" pos="53.444228" edge="96027913#2" slope="0.000000"/>
    </timestep>
    <timestep time="20.00">
        <vehicle id="right_3" x="13.491700" y="55.634359" angle="140.442084" type="v1" speed="18.965540" pos="98.399152" lane="96027913#0_1" slope="0.000000"/>
        <vehicle id="right_6" x="13.490775" y="55.634987" angle="153.973159" type="v1" speed="1.853928" pos="6.953928" lane="96027913#0_1" slope="0.000000"/>
        <vehicle id="up_0" x="13.492799" y="55.633962" angle="27.150877" type="v1" speed="13.015955" pos="13.322458" lane="-34992983#3_1" slope="0.000000"/>
        <vehicle id="up_1" x="13.492479" y="55.633667" angle="29.312546" type="v1" speed="9.183173" pos="8.272863" lane="-24626686#1_1" slope="0.000000"/>
        <vehicle id="up_2" x="13.492238" y="55.633421" angle="30.478751" type="v1" speed="13.298391" pos="19.673751" lane="-24626686#2_1" slope="0.000000"/>
        <vehicle id="up_4" x="13.492044" y="55.633183" angle="14.255345" type="v1" speed="10.451040" pos="2.059827" lane=":267701934_7_0" slope="0.000000"/>
        <vehicle id="up_5" x="13.491969" y="55.632923" angle="8.087933" type="v1" speed="7.162381" pos="23.366326" lane="-355113043#1_1" slope="0.000000"/>
        <person id="ped_0" x="13.492563" y="55.633859" angle="230.836629" speed="1.318629" pos="0.456886" edge=":267701936_c3" slope="0.000000"/>
        <person id="ped_1" x="13.492725" y="55.634007" angle="207.147673" speed="1.038060" pos="19.624849" edge="34992983#2" slope="0.000000"/>
        <person id="ped_3" x="13.491860" y="55.634212" angle="139.824488" speed="0.000000" pos="10.645336" edge="96027913#2" slope="0.000000"/>
        <person id="ped_2" x="13.492319" y="55.633914" angle="139.720137" speed="1.229846" pos="54.674074" edge="96027913#2" slope="0.000000"/>
    </timestep>
    <timestep time="21.00">
        <vehicle id="right_3" x="13.491919" y="55.634218" angle="139.832592" type="v1" speed="20.936841" pos="12.615993" lane="96027913#2_1" slope="0.000000"/>
        <vehicle id="right_6" x="13.490806" y="55.634959" angle="149.818102" type="v1" speed="3.635595" pos="10.589523" lane="96027913#0_1" slope="0.000000"/>
        <vehicle id="up_0" x="13.492897" y="55.634076" angle="27.150877" type="v1" speed="14.182072" pos="27.504530" lane="-34992983#3_1" slope="0.000000"/>
        <vehicle id="up_1" x="13.492522" y="55.633711" angle="29.855483" type="v1" speed="5.552788" pos="13.825652" lane="-24626686#1_1" slope="0.000000"/>
        <vehicle id="up_2" x="13.492340" y="55.633523" angle="30.677280" type="v1" speed="13.027794" pos="32.701544" lane="-24626686#2_1" slope="0.000000"/>
        <vehicle id="up_4" x="13.492114" y="55.633291" angle="22.864603" type="v1" speed="12.835182" pos="3.365009" lane="-24626686#2_1" slope="0.000000"/>
        <vehicle id="up_5" x="13.491985" y="55.633001" angle="8.100918" type="v1" speed="8.749079" pos="32.115405" lane="-355113043#1_1" slope="0.000000"/>
        <person id="ped_0" x="13.492549" y="55.633852" angle="230.836629" speed="1.134842" pos="1.591728" edge=":267701936_c3" slope="0.000000"/>
        <person id="ped_4" x="13.492833" y="55.634133" angle="207.147673" speed="0.000000" pos="4.009816" edge="34992983#2" slope="0.000000"/>
        <person id="ped_1" x="13.492717" y="55.633997" angle="207.147673" speed="1.218119" pos="20.842967" edge="34992983#2" slope="0.000000"/>
        <person id="ped_3" x="13.491874" y="55.634203" angle="139.824488" speed="1.325531" pos="11.970867" edge="96027913#2" slope="0.000000"/>
        <person id="ped_5" x="13.491887" y="55.634195" angle="139.824488" speed="0.000000" pos="13.193321" edge="96027913#2" slope="0.000000"/>
        <person id="ped_2" x="13.492330" y="55.633906" angle="139.720137" speed="1.096223" pos="55.770297" edge="96027913#2" slope="0.000000"/>
    </timestep>
    <timestep time="22.00">
        <vehicle id="right_3" x="13.492124" y="55.634085" angle="140.889324" type="v1" speed="19.650347" pos="32.266340" lane="96027913#2_1" slope="0.000000"/>
        <vehicle id="right_6" x="13.490862" y="55.634916" angle="144.465520" type="v1" speed="5.962100" pos="16.551623" lane="96027913#0_1" slope="0.000000"/>
        <vehicle id="right_7" x="13.490762" y="55.635001" angle="157.287464" type="v1" speed="0.000000" pos="5.100000" lane="96027913#0_1" slope="0.000000"/>
        <vehicle id="up_0" x="13.492990" y="55.634187" angle="25.344261" type="v1" speed="13.719091" pos="5.433620" lane="-34992983#1_1" slope="0.000000"/>
        <vehicle id="up_1" x="13.492594" y="55.633761" angle="40.400494" type="v1" speed="7.135987" pos="4.961639" lane=":267701936_2_0" slope="0.000000"/>
        <vehicle id="up_2" x="13.492417" y="55.633601" angle="30.554455" type="v1" speed="9.871738" pos="0.083282" lane="-24626686#1_1" slope="0.000000"/>
        <vehicle id="up_4" x="13.492227" y="55.633410" angle="30.478751" type="v1" speed="14.953693" pos="18.318703" lane="-24626686#2_1" slope="0.000000"/>
        <vehicle id="up_5" x="13.492005" y="55.633086" angle="9.066173" type="v1" speed="9.536371" pos="41.651776" lane="-355113043#1_1" slope="0.000000"/>
        <person id="ped_0" x="13.492532" y="55.633844" angle="230.836629" speed="1.367012" pos="2.958741" edge=":267701936_c3" slope="0.000000"/>
        <person id="ped_4" x="13.492825" y="55.634123" angle="207.147673" speed="1.240105" pos="5.249921" edge="34992983#2" slope="0.000000"/>
        <person id="ped_1" x="13.492709" y="55.633988" angle="207.147673" speed="1.194699" pos="22.037666" edge="34992983#2" slope="0.000000"/>
        <person id="ped_3" x="13.491888" y="55.634194" angle="139.824488" speed="1.356244" pos="13.327111" edge="96027913#2" slope="0.000000"/>
        <person id="ped_5" x="13.491901" y="55.634185" angle="139.824488" speed="1.388791" pos="14.582112" edge="96027913#2" slope="0.000000"/>
        <person id="ped_2" x="13.492341" y="55.633899" angle="139.720137" speed="1.025222" pos="56.795519" edge="96027913#2" slope="0.000000"/>
        <person id="ped_6" x="13.492348" y="55.633895" angle="139.720137" speed="0.000000" pos="57.460887" edge="96027913#2" slope="0.000000"/>
    </timestep>
    <timestep time="23.00">
        <vehicle id="right_3" x="13.492281" y="55.633981" angle="139.688184" type="v1" speed="15.150347" pos="47.416686" lane="96027913#2_1" slope="0.000000"/>
        <vehicle id="right_6" x="13.490941" y="55.634861" angle="142.175987" type="v1" speed="7.936321" pos="24.487944" lane="96027913#0_1" slope="0.000000"/>
        <vehicle id="right_7" x="13.490779" y="55.634983" angle="153.125612" type="v1" speed="2.286320" pos="7.386320" lane="96027913#0_1" slope="0.000000"/>
        <vehicle id="up_0" x="13.493081" y="55.634303" angle="25.344261" type="v1" speed="14.110343" pos="19.543963" lane="-34992983#1_1" slope="0.000000"/>
        <vehicle id="up_1" x="13.492671" y="55.633825" angle="33.832334" type="v1" speed="8.592483" pos="13.554122" lane=":267701936_2_0" slope="0.000000"/>
        <vehicle id="up_2" x="13.492483" y="55.633671" angle="29.312546" type="v1" speed="8.764667" pos="8.847949" lane="-24626686#1_1" slope="0.000000"/>
        <vehicle id="up_4" x="13.492317" y="55.633500" angle="30.677280" type="v1" speed="11.438793" pos="29.757495" lane="-24626686#2_1" slope="0.000000"/>
        <vehicle id="up_5" x="13.492036" y="55.633165" angle="13.782662" type="v1" speed="8.982541" pos="50.634317" lane="-355113043#1_1" slope="0.000000"/>
        <person id="ped_0" x="13.492516" y="55.633836" angle="230.836629" speed="1.356185" pos="4.314926" edge=":267701936_c3" slope="0.000000"/>
        <person id="ped_4" x="13.492816" y="55.634113" angle="207.147673" speed="1.286036" pos="6.535957" edge="34992983#2" slope="0.000000"/>
        <person id="ped_1" x="13.492701" y="55.633979" angle="207.147673" speed="1.085335" pos="23.123001" edge="34992983#2" slope="0.000000"/>
        <person id="ped_3" x="13.491901" y="55.634186" angle="139.824488" speed="1.216434" pos="14.543546" edge="96027913#2" slope="0.000000"/>
        <person id="ped_5" x="13.491915" y="55.634177" angle="139.824488" speed="1.270304" pos="15.852416" edge="96027913#2" slope="0.000000"/>
        <person id="ped_2" x="13.492354" y="55.633891" angle="139.720137" speed="1.247651" pos="58.043171" edge="96027913#2" slope="0.000000"/>
        <person id="ped_6" x="13.492360" y="55.633887" angle="139.720137" speed="1.145840" pos="58.606727" edge="96027913#2" slope="0.000000"/>
    </timestep>
    <timestep time="24.00">
        <vehicle id="right_3" x="13.492393" y="55.633910" angle="139.688184" type="v1" speed="10.650347" pos="58.067033" lane="96027913#2_1" slope="0.000000"/>
        <vehicle id="right_6" x="13.491044" y="55.634789" angle="142.175987" type="v1" speed="10.340138" pos="34.828082" lane="96027913#0_1" slope="0.000000"/>
        <vehicle id="right_7" x="13.490814" y="55.634953" angle="148.892713" type="v1" speed="4.099688" pos="11.486008" lane="96027913#0_1" slope="0.000000"/>
        <vehicle id="right_8" x="13.490762" y="55.635001" angle="157.287464" type="v1" speed="0.000000" pos="5.100000" lane="96027913#0_1" slope="0.000000"/>
        <vehicle id="up_0" x="13.493169" y="55.634415" angle="25.344261" type="v1" speed="13.616551" pos="33.160514" lane="-34992983#1_1" slope="0.000000"/>
        <vehicle id="up_1" x="13.492756" y="55.633911" angle="27.705843" type="v1" speed="11.022764" pos="7.026886" lane="-34992983#3_1" slope="0.000000"/>
        <vehicle id="up_2" x="13.492525" y="55.633713" angle="30.503343" type="v1" speed="5.263188" pos="14.111137" lane="-24626686#1_1" slope="0.000000"/>
        <vehicle id="up_4" x="13.492399" y="55.633583" angle="30.677280" type="v1" speed="10.533463" pos="40.290959" lane="-24626686#2_1" slope="0.000000"/>
        <vehicle id="up_5" x="13.492077" y="55.633239" angle="21.202953" type="v1" speed="8.617767" pos="8.612085" lane=":267701934_7_0" slope="0.000000"/>
        <person id="ped_0" x="13.492501" y="55.633829" angle="230.836629" speed="1.235984" pos="5.550910" edge=":267701936_c3" slope="0.000000"/>
        <person id="ped_4" x="13.492808" y="55.634104" angle="207.147673" speed="1.098570" pos="7.634527" edge="34992983#2" slope="0.000000"/>
        <person id="ped_1" x="13.492694" y="55.633971" angle="207.147673" speed="1.055925" pos="24.178926" edge="34992983#2" slope="0.000000"/>
        <person id="ped_3" x="13.491914" y="55.634177" angle="139.824488" speed="1.254903" pos="15.798449" edge="96027913#2" slope="0.000000"/>
        <person id="ped_5" x="13.491929" y="55.634168" angle="139.824488" speed="1.321785" pos="17.174201" edge="96027913#2" slope="0.000000"/>
        <person id="ped_2" x="13.492366" y="55.633883" angle="139.720137" speed="1.124647" pos="59.167818" edge="96027913#2" slope="0.000000"/>
        <person id="ped_6" x="13.492372" y="55.633880" angle="139.720137" speed="1.105285" pos="59.712012" edge="96027913#2" slope="0.000000"/>
    </timestep>
    <timestep time="25.00">
        <vehicle id="right_3" x="13.492458" y="55.633868" angle="139.688184" type="v1" speed="6.150347" pos="64.217380" lane="96027913#2_1" slope="0.000000"/>
        <vehicle id="right_6" x="13.491175" y="55.634703" angle="140.346764" type="v1" speed="12.718903" pos="47.546985" lane="96027913#0_1" slope="0.000000"/>
        <vehicle id="right_7" x="13.490872" y="55.634910" angle="143.272184" type="v1" speed="6.043803" pos="17.529811" lane="96027913#0_1" slope="0.000000"/>
        <vehicle id="right_8" x="13.490764" y="55.634999" angle="156.781043" type="v1" speed="0.282820" pos="5.382820" lane="96027913#0_1" slope="0.000000"/>
        <vehicle id="up_0" x="13.493261" y="55.634530" angle="25.344261" type="v1" speed="14.132701" pos="47.293215" lane="-34992983#1_1" slope="0.000000"/>
        <vehicle id="up_1" x="13.492845" y="55.634015" angle="27.150877" type="v1" speed="12.883143" pos="19.910028" lane="-34992983#3_1" slope="0.000000"/>
        <vehicle id="up_2" x="13.492596" y="55.633762" angle="40.398119" type="v1" speed="7.003791" pos="5.114928" lane=":267701936_2_0" slope="0.000000"/>
        <vehicle id="up_4" x="13.492452" y="55.633638" angle="29.299464" type="v1" speed="6.940628" pos="4.741587" lane="-24626686#1_1" slope="0.000000"/>
        <vehicle id="up_5" x="13.492140" y="55.633322" angle="25.998502" type="v1" speed="10.058970" pos="7.141055" lane="-24626686#2_1" slope="0.000000"/>
        <person id="ped_0" x="13.492485" y="55.633821" angle="230.836629" speed="1.356060" pos="0.506969" edge=":267701936_w3" slope="0.000000"/>
        <person id="ped_4" x="13.492799" y="55.634093" angle="207.147673" speed="1.301719" pos="8.936246" edge="34992983#2" slope="0.000000"/>
        <person id="ped_1" x="13.492687" y="55.633963" angle="207.147673" speed="0.991394" pos="25.170320" edge="34992983#2" slope="0.000000"/>
        <person id="ped_3" x="13.491928" y="55.634168" angle="139.824488" speed="1.340427" pos="17.138876" edge="96027913#2" slope="0.000000"/>
        <person id="ped_5" x="13.491944" y="55.634158" angle="139.824488" speed="1.458066" pos="18.632267" edge="96027913#2" slope="0.000000"/>
        <person id="ped_2" x="13.492379" y="55.633875" angle="139.720137" speed="1.231694" pos="60.399512" edge="96027913#2" slope="0.000000"/>
        <person id="ped_6" x="13.492384" y="55.633872" angle="139.720137" speed="1.192366" pos="60.904377" edge="96027913#2" slope="0.000000"/>
    </timestep>
    <timestep time="26.00">
        <vehicle id="right_3" x="13.492477" y="55.633856" angle="139.941734" type="v1" speed="1.822349" pos="66.039729" lane="96027913#2_1" slope="0.000000"/>
        <vehicle id="right_6" x="13.491325" y="55.634605" angle="140.346764" type="v1" speed="14.569105" pos="62.116090" lane="96027913#0_1" slope="0.000000"/>
        <vehicle id="right_7" x="13.490953" y="55.634853" angle="142.175987" type="v1" speed="8.182570" pos="25.712381" lane="96027913#0_1" slope="0.000000"/>
        <vehicle id="right_8" x="13.490776" y="55.634986" angle="153.842187" type="v1" speed="1.644591" pos="7.027411" lane="96027913#0_1" slope="0.000000"/>