<?xml version="1.0" encoding="UTF-8"?>

<!-- generated on 2022-05-16 21:02:10 by Eclipse SUMO sumo Version 1.10.0
<configuration xmlns:xsi="http://www.w3.org/2001/XMLSchema-instance" xsi:noNamespaceSchemaLocation="http://sumo.dlr.de/xsd/sumoConfiguration.xsd">

    <input>
        <net-file value="tlc_single_straight.net.xml"/>
        <route-files value="tlc_single_straight.rou.xml"/>
        <additional-files value="tlc_single_straight.add.xml"/>
    </input>

    <output>
        <tripinfo-output value="tripinfo.xml"/>
    </output>

    <time>
        <begin value="0"/>
        <end value="3600"/>
    </time>

    <processing>
        <time-to-teleport value="-1"/>
    </processing>

    <traci_server>
        <remote-port value="60044"/>
    </traci_server>

</configuration>
-->

<tripinfos xmlns:xsi="http://www.w3.org/2001/XMLSchema-instance" xsi:noNamespaceSchemaLocation="http://sumo.dlr.de/xsd/tripinfo_file.xsd">
    <tripinfo id="up_0" depart="1.00" departLane="e40_0" departPos="5.10" departSpeed="0.00" departDelay="0.00" arrival="36.00" arrivalLane="e02_0" arrivalPos="53.17" arrivalSpeed="9.19" duration="35.00" routeLength="99.45" waitingTime="9.00" waitingCount="1" stopTime="0.00" timeLoss="27.69" rerouteNo="0" devices="tripinfo_up_0" vType="v1" speedFactor="1.06" vaporized=""/>
    <tripinfo id="up_1" depart="6.00" departLane="e40_0" departPos="5.10" departSpeed="0.00" departDelay="1.00" arrival="38.00" arrivalLane="e02_0" arrivalPos="53.17" arrivalSpeed="9.79" duration="32.00" routeLength="99.45" waitingTime="5.00" waitingCount="1" stopTime="0.00" timeLoss="23.68" rerouteNo="0" devices="tripinfo_up_1" vType="v1" speedFactor="0.94" vaporized=""/>
    <tripinfo id="up_3" depart="11.00" departLane="e40_0" departPos="5.10" departSpeed="0.00" departDelay="3.00" arrival="40.00" arrivalLane="e02_0" arrivalPos="53.17" arrivalSpeed="10.23" duration="29.00" routeLength="99.45" waitingTime="4.00" waitingCount="1" stopTime="0.00" timeLoss="21.89" rerouteNo="0" devices="tripinfo_up_3" vType="v1" speedFactor="1.08" vaporized=""/>
    <tripinfo id="up_5" depart="21.00" departLane="e40_0" departPos="5.10" departSpeed="0.00" departDelay="0.00" arrival="42.00" arrivalLane="e02_0" arrivalPos="53.17" arrivalSpeed="10.16" duration="21.00" routeLength="99.45" waitingTime="0.00" waitingCount="0" stopTime="0.00" timeLoss="11.98" rerouteNo="0" devices="tripinfo_up_5" vType="v1" speedFactor="0.83" vaporized=""/>
    <tripinfo id="up_6" depart="26.00" departLane="e40_0" departPos="5.10" departSpeed="0.00" departDelay="4.00" arrival="44.00" arrivalLane="e02_0" arrivalPos="53.17" arrivalSpeed="11.34" duration="18.00" routeLength="99.45" waitingTime="0.00" waitingCount="0" stopTime="0.00" timeLoss="10.68" rerouteNo="0" devices="tripinfo_up_6" vType="v1" speedFactor="1.05" vaporized=""/>
    <tripinfo id="up_12" depart="31.00" departLane="e40_0" departPos="5.10" departSpeed="0.00" departDelay="2.00" arrival="50.00" arrivalLane="e02_0" arrivalPos="53.17" arrivalSpeed="11.23" duration="19.00" routeLength="99.45" waitingTime="0.00" waitingCount="0" stopTime="0.00" timeLoss="11.44" rerouteNo="0" devices="tripinfo_up_12" vType="v1" speedFactor="1.05" vaporized=""/>
    <tripinfo id="up_17" depart="42.00" departLane="e40_0" departPos="5.10" departSpeed="0.00" departDelay="0.00" arrival="60.00" arrivalLane="e02_0" arrivalPos="53.17" arrivalSpeed="11.40" duration="18.00" routeLength="99.45" waitingTime="0.00" waitingCount="0" stopTime="0.00" timeLoss="9.83" rerouteNo="0" devices="tripinfo_up_17" vType="v1" speedFactor="0.94" vaporized=""/>
    <tripinfo id="up_18" depart="47.00" departLane="e40_0" departPos="5.10" departSpeed="0.00" departDelay="4.00" arrival="65.00" arrivalLane="e02_0" arrivalPos="53.17" arrivalSpeed="10.80" duration="18.00" routeLength="99.45" waitingTime="0.00" waitingCount="0" stopTime="0.00" timeLoss="10.11" rerouteNo="0" devices="tripinfo_up_18" vType="v1" speedFactor="0.94" vaporized=""/>
    <tripinfo id="up_23" depart="61.00" departLane="e40_0" departPos="5.10" departSpeed="0.00" departDelay="0.00" arrival="80.00" arrivalLane="e02_0" arrivalPos="53.17" arrivalSpeed="11.13" duration="19.00" routeLength="99.45" waitingTime="0.00" waitingCount="0" stopTime="0.00" timeLoss="10.16" rerouteNo="0" devices="tripinfo_up_23" vType="v1" speedFactor="0.89" vaporized=""/>
    <tripinfo id="up_24" depart="66.00" departLane="e40_0" departPos="5.10" departSpeed="0.00" departDelay="0.00" arrival="85.00" arrivalLane="e02_0" arrivalPos="53.17" arrivalSpeed="11.09" duration="19.00" routeLength="99.45" waitingTime="0.00" waitingCount="0" stopTime="0.00" timeLoss="9.56" rerouteNo="0" devices="tripinfo_up_24" vType="v1" speedFactor="0.83" vaporized=""/>
    <tripinfo id="up_25" depart="72.00" departLane="e40_0" departPos="5.10" departSpeed="0.00" departDelay="5.00" arrival="90.00" arrivalLane="e02_0" arrivalPos="53.17" arrivalSpeed="10.82" duration="18.00" routeLength="99.45" waitingTime="0.00" waitingCount="0" stopTime="0.00" timeLoss="9.27" rerouteNo="0" devices="tripinfo_up_25" vType="v1" speedFactor="0.87" vaporized=""/>
    <tripinfo id="up_26" depart="77.00" departLane="e40_0" departPos="5.10" departSpeed="0.00" departDelay="8.00" arrival="94.00" arrivalLane="e02_0" arrivalPos="53.17" arrivalSpeed="10.69" duration="17.00" routeLength="99.45" waitingTime="0.00" waitingCount="0" stopTime="0.00" timeLoss="9.01" rerouteNo="0" devices="tripinfo_up_26" vType="v1" speedFactor="0.92" vaporized=""/>
    <tripinfo id="up_30" depart="91.00" departLane="e40_0" departPos="5.10" departSpeed="0.00" departDelay="0.00" arrival="109.00" arrivalLane="e02_0" arrivalPos="53.17" arrivalSpeed="11.06" duration="18.00" routeLength="99.45" waitingTime="0.00" waitingCount="0" stopTime="0.00" timeLoss="11.57" rerouteNo="0" devices="tripinfo_up_30" vType="v1" speedFactor="1.18" vaporized=""/>
    <tripinfo id="right_2" depart="6.00" departLane="e10_0" departPos="5.10" departSpeed="0.00" departDelay="0.00" arrival="119.00" arrivalLane="e03_0" arrivalPos="48.65" arrivalSpeed="8.98" duration="113.00" routeLength="138.04" waitingTime="83.00" waitingCount="2" stopTime="0.00" timeLoss="102.91" rerouteNo="0" devices="tripinfo_right_2" vType="v1" speedFactor="1.01" vaporized=""/>
    <tripinfo id="up_32" depart="100.00" departLane="e40_0" departPos="5.10" departSpeed="0.00" departDelay="0.00" arrival="126.00" arrivalLane="e02_0" arrivalPos="53.17" arrivalSpeed="8.72" duration="26.00" routeLength="99.45" waitingTime="0.00" waitingCount="0" stopTime="0.00" timeLoss="18.88" rerouteNo="0" devices="tripinfo_up_32" vType="v1" speedFactor="1.01" vaporized=""/>
    <tripinfo id="up_33" depart="106.00" departLane="e40_0" departPos="5.10" departSpeed="0.00" departDelay="0.00" arrival="128.00" arrivalLane="e02_0" arrivalPos="53.17" arrivalSpeed="9.03" duration="22.00" routeLength="99.45" waitingTime="0.00" waitingCount="0" stopTime="0.00" timeLoss="15.86" rerouteNo="0" devices="tripinfo_up_33" vType="v1" speedFactor="1.17" vaporized=""/>
    <tripinfo id="up_35" depart="116.00" departLane="e40_0" departPos="5.10" departSpeed="0.00" departDelay="0.00" arrival="134.00" arrivalLane="e02_0" arrivalPos="53.17" arrivalSpeed="10.16" duration="18.00" routeLength="99.45" waitingTime="0.00" waitingCount="0" stopTime="0.00" timeLoss="10.80" rerouteNo="0" devices="tripinfo_up_35" vType="v1" speedFactor="1.02" vaporized=""/>
    <tripinfo id="up_37" depart="127.00" departLane="e40_0" departPos="5.10" departSpeed="0.00" departDelay="0.00" arrival="144.00" arrivalLane="e02_0" arrivalPos="53.17" arrivalSpeed="11.22" duration="17.00" routeLength="99.45" waitingTime="0.00" waitingCount="0" stopTime="0.00" timeLoss="10.67" rerouteNo="0" devices="tripinfo_up_37" vType="v1" speedFactor="1.18" vaporized=""/>
    <tripinfo id="up_43" depart="138.00" departLane="e40_0" departPos="5.10" departSpeed="0.00" departDelay="0.00" arrival="156.00" arrivalLane="e02_0" arrivalPos="53.17" arrivalSpeed="10.87" duration="18.00" routeLength="99.45" waitingTime="0.00" waitingCount="0" stopTime="0.00" timeLoss="10.51" rerouteNo="0" devices="tripinfo_up_43" vType="v1" speedFactor="1.04" vaporized=""/>
    <tripinfo id="up_47" depart="143.00" departLane="e40_0" departPos="5.10" departSpeed="0.00" departDelay="2.00" arrival="161.00" arrivalLane="e02_0" arrivalPos="53.17" arrivalSpeed="10.78" duration="18.00" routeLength="99.45" waitingTime="0.00" waitingCount="0" stopTime="0.00" timeLoss="9.68" rerouteNo="0" devices="tripinfo_up_47" vType="v1" speedFactor="0.90" vaporized=""/>
    <tripinfo id="up_49" depart="148.00" departLane="e40_0" departPos="5.10" departSpeed="0.00" departDelay="2.00" arrival="166.00" arrivalLane="e02_0" arrivalPos="53.17" arrivalSpeed="10.90" duration="18.00" routeLength="99.45" waitingTime="0.00" waitingCount="0" stopTime="0.00" timeLoss="9.35" rerouteNo="0" devices="tripinfo_up_49" vType="v1" speedFactor="0.85" vaporized=""/>
    <tripinfo id="up_52" depart="153.00" departLane="e40_0" departPos="5.10" departSpeed="0.00" departDelay="4.00" arrival="171.00" arrivalLane="e02_0" arrivalPos="53.17" arrivalSpeed="11.01" duration="18.00" routeLength="99.45" waitingTime="0.00" waitingCount="0" stopTime="0.00" timeLoss="10.65" rerouteNo="0" devices="tripinfo_up_52" vType="v1" speedFactor="1.02" vaporized=""/>
    <tripinfo id="up_53" depart="162.00" departLane="e40_0" departPos="5.10" departSpeed="0.00" departDelay="0.00" arrival="180.00" arrivalLane="e02_0" arrivalPos="53.17" arrivalSpeed="11.16" duration="18.00" routeLength="99.45" waitingTime="0.00" waitingCount="0" stopTime="0.00" timeLoss="11.05" rerouteNo="0" devices="tripinfo_up_53" vType="v1" speedFactor="1.10" vaporized=""/>
    <tripinfo id="up_58" depart="173.00" departLane="e40_0" departPos="5.10" departSpeed="0.00" departDelay="0.00" arrival="192.00" arrivalLane="e02_0" arrivalPos="53.17" arrivalSpeed="10.84" duration="19.00" routeLength="99.45" waitingTime="0.00" waitingCount="0" stopTime="0.00" timeLoss="11.45" rerouteNo="0" devices="tripinfo_up_58" vType="v1" speedFactor="1.02" vaporized=""/>
    <tripinfo id="right_4" depart="12.00" departLane="e10_0" departPos="5.10" departSpeed="0.00" departDelay="0.00" arrival="206.00" arrivalLane="e03_0" arrivalPos="48.65" arrivalSpeed="8.35" duration="194.00" routeLength="138.04" waitingTime="154.00" waitingCount="4" stopTime="0.00" timeLoss="184.15" rerouteNo="0" devices="tripinfo_right_4" vType="v1" speedFactor="1.03" vaporized=""/>
    <tripinfo id="up_71" depart="228.00" departLane="e40_0" departPos="5.10" departSpeed="0.00" departDelay="0.00" arrival="246.00" arrivalLane="e02_0" arrivalPos="53.17" arrivalSpeed="11.73" duration="18.00" routeLength="99.45" waitingTime="0.00" waitingCount="0" stopTime="0.00" timeLoss="9.94" rerouteNo="0" devices="tripinfo_up_71" vType="v1" speedFactor="0.97" vaporized=""/>
    <tripinfo id="up_72" depart="233.00" departLane="e40_0" departPos="5.10" departSpeed="0.00" departDelay="1.00" arrival="252.00" arrivalLane="e02_0" arrivalPos="53.17" arrivalSpeed="10.93" duration="19.00" routeLength="99.45" waitingTime="0.00" waitingCount="0" stopTime="0.00" timeLoss="10.74" rerouteNo="0" devices="tripinfo_up_72" vType="v1" speedFactor="0.94" vaporized=""/>
    <tripinfo id="up_75" depart="245.00" departLane="e40_0" departPos="5.10" departSpeed="0.00" departDelay="0.00" arrival="263.00" arrivalLane="e02_0" arrivalPos="53.17" arrivalSpeed="10.90" duration="18.00" routeLength="99.45" waitingTime="0.00" waitingCount="0" stopTime="0.00" timeLoss="10.42" rerouteNo="0" devices="tripinfo_up_75" vType="v1" speedFactor="0.98" vaporized=""/>
    <tripinfo id="up_77" depart="252.00" departLane="e40_0" departPos="5.10" departSpeed="0.00" departDelay="0.00" arrival="271.00" arrivalLane="e02_0" arrivalPos="53.17" arrivalSpeed="10.24" duration="19.00" routeLength="99.45" waitingTime="0.00" waitingCount="0" stopTime="0.00" timeLoss="11.36" rerouteNo="0" devices="tripinfo_up_77" vType="v1" speedFactor="0.98" vaporized=""/>
    <tripinfo id="up_79" depart="257.00" departLane="e40_0" departPos="5.10" departSpeed="0.00" departDelay="1.00" arrival="277.00" arrivalLane="e02_0" arrivalPos="53.17" arrivalSpeed="10.47" duration="20.00" routeLength="99.45" waitingTime="1.00" waitingCount="1" stopTime="0.00" timeLoss="13.07" rerouteNo="0" devices="tripinfo_up_79" vType="v1" speedFactor="1.09" vaporized=""/>
    <tripinfo id="up_81" depart="264.00" departLane="e40_0" departPos="5.10" departSpeed="0.00" departDelay="5.00" arrival="282.00" arrivalLane="e02_0" arrivalPos="53.17" arrivalSpeed="11.17" duration="18.00" routeLength="99.45" waitingTime="0.00" waitingCount="0" stopTime="0.00" timeLoss="10.58" rerouteNo="0" devices="tripinfo_up_81" vType="v1" speedFactor="1.00" vaporized=""/>
    <tripinfo id="right_7" depart="23.00" departLane="e10_0" departPos="5.10" departSpeed="0.00" departDelay="0.00" arrival="292.00" arrivalLane="e03_0" arrivalPos="48.65" arrivalSpeed="8.77" duration="269.00" routeLength="138.04" waitingTime="220.00" waitingCount="6" stopTime="0.00" timeLoss="257.35" rerouteNo="0" devices="tripinfo_right_7" vType="v1" speedFactor="0.89" vaporized=""/>
    <tripinfo id="up_85" depart="287.00" departLane="e40_0" departPos="5.10" departSpeed="0.00" departDelay="0.00" arrival="306.00" arrivalLane="e02_0" arrivalPos="53.17" arrivalSpeed="10.89" duration="19.00" routeLength="99.45" waitingTime="0.00" waitingCount="0" stopTime="0.00" timeLoss="10.96" rerouteNo="0" devices="tripinfo_up_85" vType="v1" speedFactor="0.98" vaporized=""/>
    <tripinfo id="up_87" depart="295.00" departLane="e40_0" departPos="5.10" departSpeed="0.00" departDelay="0.00" arrival="313.00" arrivalLane="e02_0" arrivalPos="53.17" arrivalSpeed="10.59" duration="18.00" routeLength="99.45" waitingTime="0.00" waitingCount="0" stopTime="0.00" timeLoss="11.06" rerouteNo="0" devices="tripinfo_up_87" vType="v1" speedFactor="1.04" vaporized=""/>
    <tripinfo id="up_89" depart="300.00" departLane="e40_0" departPos="5.10" departSpeed="0.00" departDelay="4.00" arrival="319.00" arrivalLane="e02_0" arrivalPos="53.17" arrivalSpeed="10.71" duration="19.00" routeLength="99.45" waitingTime="0.00" waitingCount="0" stopTime="0.00" timeLoss="11.41" rerouteNo="0" devices="tripinfo_up_89" vType="v1" speedFactor="1.02" vaporized=""/>
    <tripinfo id="up_94" depart="308.00" departLane="e40_0" departPos="5.10" departSpeed="0.00" departDelay="0.00" arrival="327.00" arrivalLane="e02_0" arrivalPos="53.17" arrivalSpeed="10.95" duration="19.00" routeLength="99.45" waitingTime="0.00" waitingCount="0" stopTime="0.00" timeLoss="11.75" rerouteNo="0" devices="tripinfo_up_94" vType="v1" speedFactor="1.09" vaporized=""/>
    <tripinfo id="up_108" depart="374.00" departLane="e40_0" departPos="5.10" departSpeed="0.00" departDelay="0.00" arrival="393.00" arrivalLane="e02_0" arrivalPos="53.17" arrivalSpeed="11.20" duration="19.00" routeLength="99.45" waitingTime="0.00" waitingCount="0" stopTime="0.00" timeLoss="11.57" rerouteNo="0" devices="tripinfo_up_108" vType="v1" speedFactor="1.06" vaporized=""/>
    <tripinfo id="right_8" depart="28.00" departLane="e10_0" departPos="5.10" departSpeed="0.00" departDelay="4.00" arrival="421.00" arrivalLane="e03_0" arrivalPos="48.65" arrivalSpeed="8.38" duration="393.00" routeLength="138.04" waitingTime="334.00" waitingCount="9" stopTime="0.00" timeLoss="382.22" rerouteNo="0" devices="tripinfo_right_8" vType="v1" speedFactor="0.94" vaporized=""/>
    <tripinfo id="up_113" depart="399.00" departLane="e40_0" departPos="5.10" departSpeed="0.00" departDelay="0.00" arrival="429.00" arrivalLane="e02_0" arrivalPos="53.17" arrivalSpeed="9.44" duration="30.00" routeLength="99.45" waitingTime="3.00" waitingCount="1" stopTime="0.00" timeLoss="22.40" rerouteNo="0" devices="tripinfo_up_113" vType="v1" speedFactor="1.01" vaporized=""/>
    <tripinfo id="up_120" depart="424.00" departLane="e40_0" departPos="5.10" departSpeed="0.00" departDelay="0.00" arrival="442.00" arrivalLane="e02_0" arrivalPos="53.17" arrivalSpeed="11.19" duration="18.00" routeLength="99.45" waitingTime="0.00" waitingCount="0" stopTime="0.00" timeLoss="10.11" rerouteNo="0" devices="tripinfo_up_120" vType="v1" speedFactor="0.94" vaporized=""/>
    <tripinfo id="up_126" depart="442.00" departLane="e40_0" departPos="5.10" departSpeed="0.00" departDelay="0.00" arrival="459.00" arrivalLane="e02_0" arrivalPos="53.17" arrivalSpeed="10.84" duration="17.00" routeLength="99.45" waitingTime="0.00" waitingCount="0" stopTime="0.00" timeLoss="9.97" rerouteNo="0" devices="tripinfo_up_126" vType="v1" speedFactor="1.03" vaporized=""/>
    <tripinfo id="up_132" depart="467.00" departLane="e40_0" departPos="5.10" departSpeed="0.00" departDelay="0.00" arrival="486.00" arrivalLane="e02_0" arrivalPos="53.17" arrivalSpeed="10.81" duration="19.00" routeLength="99.45" waitingTime="0.00" waitingCount="0" stopTime="0.00" timeLoss="11.03" rerouteNo="0" devices="tripinfo_up_132" vType="v1" speedFactor="0.96" vaporized=""/>
    <tripinfo id="up_133" depart="472.00" departLane="e40_0" departPos="5.10" departSpeed="0.00" departDelay="4.00" arrival="490.00" arrivalLane="e02_0" arrivalPos="53.17" arrivalSpeed="11.42" duration="18.00" routeLength="99.45" waitingTime="0.00" waitingCount="0" stopTime="0.00" timeLoss="10.73" rerouteNo="0" devices="tripinfo_up_133" vType="v1" speedFactor="1.04" vaporized=""/>
    <tripinfo id="up_134" depart="477.00" departLane="e40_0" departPos="5.10" departSpeed="0.00" departDelay="1.00" arrival="496.00" arrivalLane="e02_0" arrivalPos="53.17" arrivalSpeed="11.08" duration="19.00" routeLength="99.45" waitingTime="0.00" waitingCount="0" stopTime="0.00" timeLoss="12.41" rerouteNo="0" devices="tripinfo_up_134" vType="v1" speedFactor="1.23" vaporized=""/>
    <tripinfo id="right_9" depart="33.00" departLane="e10_0" departPos="5.10" departSpeed="0.00" departDelay="8.00" arrival="506.00" arrivalLane="e03_0" arrivalPos="48.65" arrivalSpeed="8.85" duration="473.00" routeLength="138.04" waitingTime="409.00" waitingCount="11" stopTime="0.00" timeLoss="461.39" rerouteNo="0" devices="tripinfo_right_9" vType="v1" speedFactor="0.86" vaporized=""/>
    <tripinfo id="up_135" depart="483.00" departLane="e40_0" departPos="5.10" departSpeed="0.00" departDelay="6.00" arrival="514.00" arrivalLane="e02_0" arrivalPos="53.17" arrivalSpeed="9.15" duration="31.00" routeLength="99.45" waitingTime="4.00" waitingCount="1" stopTime="0.00" timeLoss="23.39" rerouteNo="0" devices="tripinfo_up_135" vType="v1" speedFactor="1.01" vaporized=""/>
    <tripinfo id="up_140" depart="494.00" departLane="e40_0" departPos="5.10" departSpeed="0.00" departDelay="0.00" arrival="516.00" arrivalLane="e02_0" arrivalPos="53.17" arrivalSpeed="9.38" duration="22.00" routeLength="99.45" waitingTime="0.00" waitingCount="0" stopTime="0.00" timeLoss="15.14" rerouteNo="0" devices="tripinfo_up_140" vType="v1" speedFactor="1.11" vaporized=""/>
    <tripinfo id="up_142" depart="499.00" departLane="e40_0" departPos="5.10" departSpeed="0.00" departDelay="1.00" arrival="518.00" arrivalLane="e02_0" arrivalPos="53.17" arrivalSpeed="10.14" duration="19.00" routeLength="99.45" waitingTime="0.00" waitingCount="0" stopTime="0.00" timeLoss="10.71" rerouteNo="0" devices="tripinfo_up_142" vType="v1" speedFactor="0.94" vaporized=""/>
    <tripinfo id="up_143" depart="505.00" departLane="e40_0" departPos="5.10" departSpeed="0.00" departDelay="0.00" arrival="522.00" arrivalLane="e02_0" arrivalPos="53.17" arrivalSpeed="11.14" duration="17.00" routeLength="99.45" waitingTime="0.00" waitingCount="0" stopTime="0.00" timeLoss="10.62" rerouteNo="0" devices="tripinfo_up_143" vType="v1" speedFactor="1.13" vaporized=""/>
    <tripinfo id="up_144" depart="510.00" departLane="e40_0" departPos="5.10" departSpeed="0.00" departDelay="3.00" arrival="529.00" arrivalLane="e02_0" arrivalPos="53.17" arrivalSpeed="10.19" duration="19.00" routeLength="99.45" waitingTime="0.00" waitingCount="0" stopTime="0.00" timeLoss="8.75" rerouteNo="0" devices="tripinfo_up_144" vType="v1" speedFactor="0.73" vaporized=""/>
    <tripinfo id="up_149" depart="517.00" departLane="e40_0" departPos="5.10" departSpeed="0.00" departDelay="0.00" arrival="535.00" arrivalLane="e02_0" arrivalPos="53.17" arrivalSpeed="10.75" duration="18.00" routeLength="99.45" waitingTime="0.00" waitingCount="0" stopTime="0.00" timeLoss="11.02" rerouteNo="0" devices="tripinfo_up_149" vType="v1" speedFactor="1.04" vaporized=""/>
    <tripinfo id="up_150" depart="529.00" departLane="e40_0" departPos="5.10" departSpeed="0.00" departDelay="0.00" arrival="547.00" arrivalLane="e02_0" arrivalPos="53.17" arrivalSpeed="11.05" duration="18.00" routeLength="99.45" waitingTime="0.00" waitingCount="0" stopTime="0.00" timeLoss="9.77" rerouteNo="0" devices="tripinfo_up_150" vType="v1" speedFactor="0.96" vaporized=""/>
    <tripinfo id="up_151" depart="536.00" departLane="e40_0" departPos="5.10" departSpeed="0.00" departDelay="0.00" arrival="554.00" arrivalLane="e02_0" arrivalPos="53.17" arrivalSpeed="11.68" duration="18.00" routeLength="99.45" waitingTime="0.00" waitingCount="0" stopTime="0.00" timeLoss="10.09" rerouteNo="0" devices="tripinfo_up_151" vType="v1" speedFactor="1.00" vaporized=""/>
    <tripinfo id="up_154" depart="545.00" departLane="e40_0" departPos="5.10" departSpeed="0.00" departDelay="0.00" arrival="563.00" arrivalLane="e02_0" arrivalPos="53.17" arrivalSpeed="10.84" duration="18.00" routeLength="99.45" waitingTime="0.00" waitingCount="0" stopTime="0.00" timeLoss="10.90" rerouteNo="0" devices="tripinfo_up_154" vType="v1" speedFactor="1.06" vaporized=""/>
    <tripinfo id="up_157" depart="550.00" departLane="e40_0" departPos="5.10" departSpeed="0.00" departDelay="0.00" arrival="569.00" arrivalLane="e02_0" arrivalPos="53.17" arrivalSpeed="11.52" duration="19.00" routeLength="99.45" waitingTime="0.00" waitingCount="0" stopTime="0.00" timeLoss="11.67" rerouteNo="0" devices="tripinfo_up_157" vType="v1" speedFactor="1.08" vaporized=""/>
    <tripinfo id="up_160" depart="556.00" departLane="e40_0" departPos="5.10" departSpeed="0.00" departDelay="3.00" arrival="574.00" arrivalLane="e02_0" arrivalPos="53.17" arrivalSpeed="10.81" duration="18.00" routeLength="99.45" waitingTime="0.00" waitingCount="0" stopTime="0.00" timeLoss="9.35" rerouteNo="0" devices="tripinfo_up_160" vType="v1" speedFactor="0.88" vaporized=""/>
    <tripinfo id="up_161" depart="561.00" departLane="e40_0" departPos="5.10" departSpeed="0.00" departDelay="5.00" arrival="579.00" arrivalLane="e02_0" arrivalPos="53.17" arrivalSpeed="11.23" duration="18.00" routeLength="99.45" waitingTime="0.00" waitingCount="0" stopTime="0.00" timeLoss="11.04" rerouteNo="0" devices="tripinfo_up_161" vType="v1" speedFactor="1.08" vaporized=""/>
    <tripinfo id="right_10" depart="39.00" departLane="e10_0" departPos="5.10" departSpeed="0.00" departDelay="11.00" arrival="593.00" arrivalLane="e03_0" arrivalPos="48.65" arrivalSpeed="8.77" duration="554.00" routeLength="138.04" waitingTime="480.00" waitingCount="13" stopTime="0.00" timeLoss="544.35" rerouteNo="0" devices="tripinfo_right_10" vType="v1" speedFactor="1.09" vaporized=""/>
    <tripinfo id="up_169" depart="584.00" departLane="e40_0" departPos="5.10" departSpeed="0.00" departDelay="0.00" arrival="602.00" arrivalLane="e02_0" arrivalPos="53.17" arrivalSpeed="11.71" duration="18.00" routeLength="99.45" waitingTime="0.00" waitingCount="0" stopTime="0.00" timeLoss="9.87" rerouteNo="0" devices="tripinfo_up_169" vType="v1" speedFactor="0.94" vaporized=""/>
    <tripinfo id="up_172" depart="595.00" departLane="e40_0" departPos="5.10" departSpeed="0.00" departDelay="0.00" arrival="613.00" arrivalLane="e02_0" arrivalPos="53.17" arrivalSpeed="10.82" duration="18.00" routeLength="99.45" waitingTime="0.00" waitingCount="0" stopTime="0.00" timeLoss="9.87" rerouteNo="0" devices="tripinfo_up_172" vType="v1" speedFactor="0.89" vaporized=""/>
    <tripinfo id="up_179" depart="614.00" departLane="e40_0" departPos="5.10" departSpeed="0.00" departDelay="0.00" arrival="633.00" arrivalLane="e02_0" arrivalPos="53.17" arrivalSpeed="10.99" duration="19.00" routeLength="99.45" waitingTime="0.00" waitingCount="0" stopTime="0.00" timeLoss="11.71" rerouteNo="0" devices="tripinfo_up_179" vType="v1" speedFactor="1.06" vaporized=""/>
    <tripinfo id="up_181" depart="628.00" departLane="e40_0" departPos="5.10" departSpeed="0.00" departDelay="0.00" arrival="646.00" arrivalLane="e02_0" arrivalPos="53.17" arrivalSpeed="11.60" duration="18.00" routeLength="99.45" waitingTime="0.00" waitingCount="0" stopTime="0.00" timeLoss="10.41" rerouteNo="0" devices="tripinfo_up_181" vType="v1" speedFactor="1.03" vaporized=""/>
    <tripinfo id="up_182" depart="633.00" departLane="e40_0" departPos="5.10" departSpeed="0.00" departDelay="4.00" arrival="651.00" arrivalLane="e02_0" arrivalPos="53.17" arrivalSpeed="10.77" duration="18.00" routeLength="99.45" waitingTime="0.00" waitingCount="0" stopTime="0.00" timeLoss="11.00" rerouteNo="0" devices="tripinfo_up_182" vType="v1" speedFactor="1.03" vaporized=""/>
    <tripinfo id="up_183" depart="638.00" departLane="e40_0" departPos="5.10" departSpeed="0.00" departDelay="3.00" arrival="656.00" arrivalLane="e02_0" arrivalPos="53.17" arrivalSpeed="10.25" duration="18.00" routeLength="99.45" waitingTime="0.00" waitingCount="0" stopTime="0.00" timeLoss="11.17" rerouteNo="0" devices="tripinfo_up_183" vType="v1" speedFactor="1.08" vaporized=""/>
    <tripinfo id="up_185" depart="643.00" departLane="e40_0" departPos="5.10" departSpeed="0.00" departDelay="3.00" arrival="661.00" arrivalLane="e02_0" arrivalPos="53.17" arrivalSpeed="10.35" duration="18.00" routeLength="99.45" waitingTime="0.00" waitingCount="0" stopTime="0.00" timeLoss="10.11" rerouteNo="0" devices="tripinfo_up_185" vType="v1" speedFactor="0.92" vaporized=""/>
    <tripinfo id="up_186" depart="648.00" departLane="e40_0" departPos="5.10" departSpeed="0.00" departDelay="4.00" arrival="667.00" arrivalLane="e02_0" arrivalPos="53.17" arrivalSpeed="11.21" duration="19.00" routeLength="99.45" waitingTime="0.00" waitingCount="0" stopTime="0.00" timeLoss="11.80" rerouteNo="0" devices="tripinfo_up_186" vType="v1" speedFactor="1.08" vaporized=""/>
    <tripinfo id="up_187" depart="654.00" departLane="e40_0" departPos="5.10" departSpeed="0.00" departDelay="8.00" arrival="672.00" arrivalLane="e02_0" arrivalPos="53.17" arrivalSpeed="10.84" duration="18.00" routeLength="99.45" waitingTime="0.00" waitingCount="0" stopTime="0.00" timeLoss="9.53" rerouteNo="0" devices="tripinfo_up_187" vType="v1" speedFactor="0.89" vaporized=""/>
    <tripinfo id="right_11" depart="44.00" departLane="e10_0" departPos="5.10" departSpeed="0.00" departDelay="15.00" arrival="679.00" arrivalLane="e03_0" arrivalPos="48.65" arrivalSpeed="8.41" duration="635.00" routeLength="138.04" waitingTime="555.00" waitingCount="16" stopTime="0.00" timeLoss="625.23" rerouteNo="0" devices="tripinfo_right_11" vType="v1" speedFactor="1.03" vaporized=""/>
    <tripinfo id="up_191" depart="659.00" departLane="e40_0" departPos="5.10" departSpeed="0.00" departDelay="6.00" arrival="687.00" arrivalLane="e02_0" arrivalPos="53.17" arrivalSpeed="8.89" duration="28.00" routeLength="99.45" waitingTime="2.00" waitingCount="1" stopTime="0.00" timeLoss="19.72" rerouteNo="0" devices="tripinfo_up_191" vType="v1" speedFactor="0.93" vaporized=""/>
    <tripinfo id="up_197" depart="684.00" departLane="e40_0" departPos="5.10" departSpeed="0.00" departDelay="0.00" arrival="702.00" arrivalLane="e02_0" arrivalPos="53.17" arrivalSpeed="10.89" duration="18.00" routeLength="99.45" waitingTime="0.00" waitingCount="0" stopTime="0.00" timeLoss="9.41" rerouteNo="0" devices="tripinfo_up_197" vType="v1" speedFactor="0.87" vaporized=""/>
    <tripinfo id="up_198" depart="706.00" departLane="e40_0" departPos="5.10" departSpeed="0.00" departDelay="0.00" arrival="725.00" arrivalLane="e02_0" arrivalPos="53.17" arrivalSpeed="10.24" duration="19.00" routeLength="99.45" waitingTime="0.00" waitingCount="0" stopTime="0.00" timeLoss="11.70" rerouteNo="0" devices="tripinfo_up_198" vType="v1" speedFactor="1.06" vaporized=""/>
    <tripinfo id="right_13" depart="49.00" departLane="e10_0" departPos="5.10" departSpeed="0.00" departDelay="19.00" arrival="765.00" arrivalLane="e03_0" arrivalPos="48.65" arrivalSpeed="9.23" duration="716.00" routeLength="138.04" waitingTime="630.00" waitingCount="17" stopTime="0.00" timeLoss="706.59" rerouteNo="0" devices="tripinfo_right_13" vType="v1" speedFactor="1.12" vaporized=""/>
    <tripinfo id="up_208" depart="747.00" departLane="e40_0" departPos="5.10" departSpeed="0.00" departDelay="0.00" arrival="767.00" arrivalLane="e02_0" arrivalPos="53.17" arrivalSpeed="10.01" duration="20.00" routeLength="99.45" waitingTime="0.00" waitingCount="0" stopTime="0.00" timeLoss="11.96" rerouteNo="0" devices="tripinfo_up_208" vType="v1" speedFactor="0.96" vaporized=""/>
    <tripinfo id="up_209" depart="752.00" departLane="e40_0" departPos="5.10" departSpeed="0.00" departDelay="1.00" arrival="769.00" arrivalLane="e02_0" arrivalPos="53.17" arrivalSpeed="11.11" duration="17.00" routeLength="99.45" waitingTime="0.00" waitingCount="0" stopTime="0.00" timeLoss="9.40" rerouteNo="0" devices="tripinfo_up_209" vType="v1" speedFactor="0.98" vaporized=""/>
    <tripinfo id="up_213" depart="770.00" departLane="e40_0" departPos="5.10" departSpeed="0.00" departDelay="0.00" arrival="789.00" arrivalLane="e02_0" arrivalPos="53.17" arrivalSpeed="11.31" duration="19.00" routeLength="99.45" waitingTime="0.00" waitingCount="0" stopTime="0.00" timeLoss="11.98" rerouteNo="0" devices="tripinfo_up_213" vType="v1" speedFactor="1.10" vaporized=""/>