<?xml version="1.0" encoding="UTF-8"?>

<!-- generated on 2023-07-25 10:23:39 by Eclipse SUMO sumo Version 5426fe0ba5
<configuration xmlns:xsi="http://www.w3.org/2001/XMLSchema-instance" xsi:noNamespaceSchemaLocation="http://sumo.dlr.de/xsd/sumoConfiguration.xsd">

    <input>
        <net-file value="./input/Veberod_intersection_pedestrian.net.xml"/>
        <route-files value="./input/Veberod_intersection_pedestrian.rou.xml,./input/Veberod_intersection_pedestrian.trip.xml"/>
        <additional-files value="./input/Veberod_intersection_pedestrian.add.xml"/>
    </input>

    <output>
        <fcd-output value="./output/veberod-fcd.xml"/>
        <fcd-output.geo value="true"/>
    </output>

    <time>
        <begin value="0"/>
        <end value="3600"/>
        <step-length value="1"/>
    </time>

    <report>
        <no-warnings value="true"/>
        <no-step-log value="true"/>
    </report>

    <traci_server>
        <remote-port value="58723"/>
    </traci_server>

    <gui_only>
        <gui-settings-file value="./input/viewsettings.xml"/>
    </gui_only>

</configuration>
-->

<fcd-export xmlns:xsi="http://www.w3.org/2001/XMLSchema-instance" xsi:noNamespaceSchemaLocation="http://sumo.dlr.de/xsd/fcd_file.xsd">
    <timestep time="0.00"/>
    <timestep time="1.00"/>
    <timestep time="2.00">
        <vehicle id="right_0" x="13.490762" y="55.635001" angle="157.29" type="v1" speed="0.00" pos="5.10" lane="96027913#0_1" slope="0.00"/>
    </timestep>
    <timestep time="3.00">
        <vehicle id="right_0" x="13.490774" y="55.634988" angle="154.20" type="v1" speed="1.73" pos="6.83" lane="96027913#0_1" slope="0.00"/>
    </timestep>
    <timestep time="4.00">
        <vehicle id="right_0" x="13.490802" y="55.634963" angle="150.37" type="v1" speed="3.23" pos="10.06" lane="96027913#0_1" slope="0.00"/>
    </timestep>
    <timestep time="5.00">
        <vehicle id="right_0" x="13.490855" y="55.634921" angle="145.28" type="v1" speed="5.82" pos="15.88" lane="96027913#0_1" slope="0.00"/>
        <vehicle id="up_1" x="13.491930" y="55.632737" angle="7.87" type="v1" speed="0.00" pos="5.10" lane="-355113043#1_1" slope="0.00"/>
    </timestep>
    <timestep time="6.00">
        <vehicle id="right_0" x="13.490937" y="55.634864" angle="142.18" type="v1" speed="8.22" pos="24.10" lane="96027913#0_1" slope="0.00"/>
        <vehicle id="up_1" x="13.491932" y="55.632746" angle="7.87" type="v1" speed="2.01" pos="7.11" lane="-355113043#1_1" slope="0.00"/>
    </timestep>
    <timestep time="7.00">
        <vehicle id="right_0" x="13.491042" y="55.634791" angle="142.18" type="v1" speed="10.51" pos="34.61" lane="96027913#0_1" slope="0.00"/>
        <vehicle id="up_1" x="13.491936" y="55.632763" angle="7.87" type="v1" speed="3.84" pos="10.95" lane="-355113043#1_1" slope="0.00"/>
    </timestep>
    <timestep time="8.00">
        <vehicle id="right_0" x="13.491175" y="55.634703" angle="140.35" type="v1" speed="12.93" pos="47.53" lane="96027913#0_1" slope="0.00"/>
        <vehicle id="up_1" x="13.491941" y="55.632787" angle="7.87" type="v1" speed="5.37" pos="16.32" lane="-355113043#1_1" slope="0.00"/>
        <vehicle id="up_2" x="13.491930" y="55.632737" angle="7.87" type="v1" speed="0.00" pos="5.10" lane="-355113043#1_1" slope="0.00"/>
    </timestep>
    <timestep time="9.00">
        <vehicle id="right_0" x="13.491329" y="55.634602" angle="140.35" type="v1" speed="14.97" pos="62.50" lane="96027913#0_1" slope="0.00"/>
        <vehicle id="right_3" x="13.490762" y="55.635001" angle="157.29" type="v1" speed="0.00" pos="5.10" lane="96027913#0_1" slope="0.00"/>
        <vehicle id="up_1" x="13.491948" y="55.632823" angle="7.87" type="v1" speed="7.80" pos="24.12" lane="-355113043#1_1" slope="0.00"/>
        <vehicle id="up_2" x="13.491932" y="55.632743" angle="7.87" type="v1" speed="1.44" pos="6.54" lane="-355113043#1_1" slope="0.00"/>
    </timestep>
    <timestep time="10.00">
        <vehicle id="right_0" x="13.491504" y="55.634487" angle="140.44" type="v1" speed="16.93" pos="79.43" lane="96027913#0_1" slope="0.00"/>
        <vehicle id="right_3" x="13.490777" y="55.634985" angle="153.60" type="v1" speed="2.03" pos="7.13" lane="96027913#0_1" slope="0.00"/>
        <vehicle id="up_1" x="13.491956" y="55.632861" angle="7.87" type="v1" speed="8.49" pos="32.61" lane="-355113043#1_1" slope="0.00"/>
        <vehicle id="up_2" x="13.491934" y="55.632756" angle="7.87" type="v1" speed="2.87" pos="9.42" lane="-355113043#1_1" slope="0.00"/>
    </timestep>
    <timestep time="11.00">
        <vehicle id="right_0" x="13.491698" y="55.634360" angle="140.44" type="v1" speed="18.78" pos="98.22" lane="96027913#0_1" slope="0.00"/>
        <vehicle id="right_3" x="13.490811" y="55.634955" angle="149.25" type="v1" speed="4.01" pos="11.14" lane="96027913#0_1" slope="0.00"/>
        <vehicle id="up_1" x="13.491964" y="55.632900" angle="8.07" type="v1" speed="8.65" pos="41.25" lane="-355113043#1_1" slope="0.00"/>
        <vehicle id="up_2" x="13.491939" y="55.632779" angle="7.87" type="v1" speed="5.03" pos="14.45" lane="-355113043#1_1" slope="0.00"/>
    </timestep>
    <timestep time="12.00">
        <vehicle id="right_0" x="13.491913" y="55.634221" angle="139.83" type="v1" speed="20.57" pos="12.06" lane="96027913#2_1" slope="0.00"/>
        <vehicle id="right_3" x="13.490871" y="55.634910" angle="143.34" type="v1" speed="6.33" pos="17.47" lane="96027913#0_1" slope="0.00"/>
        <vehicle id="up_1" x="13.491972" y="55.632938" angle="8.10" type="v1" speed="8.25" pos="49.51" lane="-355113043#1_1" slope="0.00"/>
        <vehicle id="up_2" x="13.491945" y="55.632808" angle="7.87" type="v1" speed="6.50" pos="20.95" lane="-355113043#1_1" slope="0.00"/>
    </timestep>
    <timestep time="13.00">
        <vehicle id="right_0" x="13.492120" y="55.634088" angle="140.76" type="v1" speed="19.76" pos="31.82" lane="96027913#2_1" slope="0.00"/>
        <vehicle id="right_3" x="13.490954" y="55.634852" angle="142.18" type="v1" speed="8.31" pos="25.78" lane="96027913#0_1" slope="0.00"/>
        <vehicle id="up_1" x="13.491981" y="55.632979" angle="8.10" type="v1" speed="9.01" pos="58.52" lane="-355113043#1_1" slope="0.00"/>
        <vehicle id="up_2" x="13.491953" y="55.632847" angle="7.87" type="v1" speed="8.53" pos="29.47" lane="-355113043#1_1" slope="0.00"/>
    </timestep>
    <timestep time="14.00">
        <vehicle id="right_0" x="13.492277" y="55.633983" angle="139.69" type="v1" speed="15.26" pos="47.09" lane="96027913#2_1" slope="0.00"/>
        <vehicle id="right_3" x="13.491059" y="55.634779" angle="142.18" type="v1" speed="10.59" pos="36.37" lane="96027913#0_1" slope="0.00"/>
        <vehicle id="up_1" x="13.491989" y="55.633020" angle="8.10" type="v1" speed="9.04" pos="67.56" lane="-355113043#1_1" slope="0.00"/>
        <vehicle id="up_2" x="13.491962" y="55.632892" angle="7.99" type="v1" speed="9.86" pos="39.33" lane="-355113043#1_1" slope="0.00"/>
    </timestep>
    <timestep time="15.00">
        <vehicle id="right_0" x="13.492391" y="55.633911" angle="139.69" type="v1" speed="10.76" pos="57.85" lane="96027913#2_1" slope="0.00"/>
        <vehicle id="right_3" x="13.491194" y="55.634691" angle="140.35" type="v1" speed="13.00" pos="49.37" lane="96027913#0_1" slope="0.00"/>
        <vehicle id="up_1" x="13.491997" y="55.633058" angle="8.10" type="v1" speed="8.50" pos="76.06" lane="-355113043#1_1" slope="0.00"/>
        <vehicle id="up_2" x="13.491973" y="55.632945" angle="8.10" type="v1" speed="11.76" pos="51.09" lane="-355113043#1_1" slope="0.00"/>
        <vehicle id="up_4" x="13.491930" y="55.632737" angle="7.87" type="v1" speed="0.00" pos="5.10" lane="-355113043#1_1" slope="0.00"/>
    </timestep>
    <timestep time="16.00">
        <vehicle id="right_0" x="13.492457" y="55.633869" angle="139.69" type="v1" speed="6.26" pos="64.11" lane="96027913#2_1" slope="0.00"/>
        <vehicle id="right_3" x="13.491347" y="55.634591" angle="140.38" type="v1" speed="14.81" pos="64.18" lane="96027913#0_1" slope="0.00"/>
        <vehicle id="up_1" x="13.492008" y="55.633095" angle="12.43" type="v1" speed="8.32" pos="84.38" lane="-355113043#1_1" slope="0.00"/>
        <vehicle id="up_2" x="13.491984" y="55.632995" angle="8.10" type="v1" speed="11.05" pos="62.14" lane="-355113043#1_1" slope="0.00"/>
        <vehicle id="up_4" x="13.491932" y="55.632748" angle="7.87" type="v1" speed="2.41" pos="7.51" lane="-355113043#1_1" slope="0.00"/>
    </timestep>
    <timestep time="17.00">
        <vehicle id="right_0" x="13.492476" y="55.633856" angle="139.94" type="v1" speed="1.91" pos="66.02" lane="96027913#2_1" slope="0.00"/>
        <vehicle id="right_3" x="13.491524" y="55.634474" angle="140.44" type="v1" speed="17.19" pos="81.37" lane="96027913#0_1" slope="0.00"/>
        <vehicle id="up_1" x="13.492023" y="55.633133" angle="13.78" type="v1" speed="8.52" pos="92.90" lane="-355113043#1_1" slope="0.00"/>
        <vehicle id="up_2" x="13.491994" y="55.633042" angle="8.10" type="v1" speed="10.41" pos="72.56" lane="-355113043#1_1" slope="0.00"/>
        <vehicle id="up_4" x="13.491937" y="55.632770" angle="7.87" type="v1" speed="4.92" pos="12.43" lane="-355113043#1_1" slope="0.00"/>
    </timestep>
    <timestep time="18.00">
        <vehicle id="right_0" x="13.492480" y="55.633854" angle="140.01" type="v1" speed="0.34" pos="66.36" lane="96027913#2_1" slope="0.00"/>
        <vehicle id="right_3" x="13.491722" y="55.634345" angle="140.44" type="v1" speed="19.13" pos="100.50" lane="96027913#0_1" slope="0.00"/>
        <vehicle id="up_1" x="13.492041" y="55.633178" angle="14.29" type="v1" speed="8.55" pos="1.44" lane=":267701934_7_0" slope="0.00"/>
        <vehicle id="up_2" x="13.492005" y="55.633088" angle="10.46" type="v1" speed="10.09" pos="82.65" lane="-355113043#1_1" slope="0.00"/>
        <vehicle id="up_4" x="13.491943" y="55.632801" angle="7.87" type="v1" speed="6.83" pos="19.26" lane="-355113043#1_1" slope="0.00"/>
    </timestep>
    <timestep time="19.00">
        <vehicle id="right_0" x="13.492482" y="55.633853" angle="140.04" type="v1" speed="0.16" pos="66.52" lane="96027913#2_1" slope="0.00"/>
        <vehicle id="right_3" x="13.491942" y="55.634203" angle="139.83" type="v1" speed="21.04" pos="14.83" lane="96027913#2_1" slope="0.00"/>
        <vehicle id="up_1" x="13.492097" y="55.633267" angle="23.17" type="v1" speed="10.51" pos="0.42" lane="-24626686#2_1" slope="0.00"/>
        <vehicle id="up_2" x="13.492021" y="55.633127" angle="13.78" type="v1" speed="8.92" pos="91.57" lane="-355113043#1_1" slope="0.00"/>
        <vehicle id="up_4" x="13.491951" y="55.632840" angle="7.87" type="v1" speed="8.55" pos="27.81" lane="-355113043#1_1" slope="0.00"/>
    </timestep>
    <timestep time="20.00">
        <vehicle id="right_0" x="13.492482" y="55.633852" angle="140.05" type="v1" speed="0.01" pos="66.53" lane="96027913#2_1" slope="0.00"/>
        <vehicle id="right_3" x="13.492128" y="55.634082" angle="141.00" type="v1" speed="17.80" pos="32.63" lane="96027913#2_1" slope="0.00"/>
        <vehicle id="up_1" x="13.492185" y="55.633368" angle="30.48" type="v1" speed="12.54" pos="12.96" lane="-24626686#2_1" slope="0.00"/>
        <vehicle id="up_2" x="13.492045" y="55.633186" angle="14.52" type="v1" speed="10.81" pos="2.38" lane=":267701934_7_0" slope="0.00"/>
        <vehicle id="up_4" x="13.491961" y="55.632884" angle="7.91" type="v1" speed="9.86" pos="37.67" lane="-355113043#1_1" slope="0.00"/>
    </timestep>
    <timestep time="21.00">
        <vehicle id="right_0" x="13.492482" y="55.633852" angle="140.05" type="v1" speed="0.01" pos="66.53" lane="96027913#2_1" slope="0.00"/>
        <vehicle id="right_3" x="13.492268" y="55.633989" angle="139.83" type="v1" speed="13.63" pos="46.26" lane="96027913#2_1" slope="0.00"/>
        <vehicle id="up_1" x="13.492298" y="55.633482" angle="30.68" type="v1" speed="14.49" pos="27.45" lane="-24626686#2_1" slope="0.00"/>
        <vehicle id="up_2" x="13.492118" y="55.633298" angle="22.75" type="v1" speed="13.29" pos="4.14" lane="-24626686#2_1" slope="0.00"/>
        <vehicle id="up_4" x="13.491970" y="55.632930" angle="8.10" type="v1" speed="10.09" pos="47.76" lane="-355113043#1_1" slope="0.00"/>
    </timestep>
    <timestep time="22.00">
        <vehicle id="right_0" x="13.492482" y="55.633852" angle="140.05" type="v1" speed="0.00" pos="66.54" lane="96027913#2_1" slope="0.00"/>
        <vehicle id="right_3" x="13.492365" y="55.633927" angle="139.69" type="v1" speed="9.20" pos="55.45" lane="96027913#2_1" slope="0.00"/>
        <vehicle id="up_1" x="13.492412" y="55.633595" angle="30.68" type="v1" speed="14.44" pos="41.89" lane="-24626686#2_1" slope="0.00"/>
        <vehicle id="up_2" x="13.492228" y="55.633411" angle="30.48" type="v1" speed="14.32" pos="18.46" lane="-24626686#2_1" slope="0.00"/>
        <vehicle id="up_4" x="13.491980" y="55.632975" angle="8.10" type="v1" speed="9.89" pos="57.65" lane="-355113043#1_1" slope="0.00"/>
        <vehicle id="up_5" x="13.491930" y="55.632737" angle="7.87" type="v1" speed="0.00" pos="5.10" lane="-355113043#1_1" slope="0.00"/>
    </timestep>
    <timestep time="23.00">
        <vehicle id="right_0" x="13.492482" y="55.633852" angle="140.05" type="v1" speed="0.00" pos="66.54" lane="96027913#2_1" slope="0.00"/>
        <vehicle id="right_3" x="13.492415" y="55.633896" angle="139.69" type="v1" speed="4.70" pos="60.15" lane="96027913#2_1" slope="0.00"/>
        <vehicle id="up_1" x="13.492487" y="55.633675" angle="29.31" type="v1" speed="9.94" pos="9.35" lane="-24626686#1_1" slope="0.00"/>
        <vehicle id="up_2" x="13.492340" y="55.633523" angle="30.68" type="v1" speed="14.27" pos="32.73" lane="-24626686#2_1" slope="0.00"/>
        <vehicle id="up_4" x="13.491990" y="55.633021" angle="8.10" type="v1" speed="10.21" pos="67.86" lane="-355113043#1_1" slope="0.00"/>
        <vehicle id="up_5" x="13.491932" y="55.632744" angle="7.87" type="v1" speed="1.59" pos="6.69" lane="-355113043#1_1" slope="0.00"/>
    </timestep>
    <timestep time="24.00">
        <vehicle id="right_0" x="13.492482" y="55.633852" angle="140.05" type="v1" speed="0.00" pos="66.54" lane="96027913#2_1" slope="0.00"/>
        <vehicle id="right_3" x="13.492418" y="55.633894" angle="139.69" type="v1" speed="0.25" pos="60.40" lane="96027913#2_1" slope="0.00"/>
        <vehicle id="up_1" x="13.492532" y="55.633718" angle="32.05" type="v1" speed="5.44" pos="14.79" lane="-24626686#1_1" slope="0.00"/>
        <vehicle id="up_2" x="13.492419" y="55.633602" angle="30.50" type="v1" speed="10.06" pos="0.30" lane="-24626686#1_1" slope="0.00"/>
        <vehicle id="up_4" x="13.492000" y="55.633070" angle="8.10" type="v1" speed="10.75" pos="78.61" lane="-355113043#1_1" slope="0.00"/>
        <vehicle id="up_5" x="13.491935" y="55.632759" angle="7.87" type="v1" speed="3.33" pos="10.01" lane="-355113043#1_1" slope="0.00"/>
    </timestep>
    <timestep time="25.00">
        <vehicle id="right_0" x="13.492482" y="55.633852" angle="140.05" type="v1" speed="0.00" pos="66.54" lane="96027913#2_1" slope="0.00"/>
        <vehicle id="right_3" x="13.492418" y="55.633893" angle="139.69" type="v1" speed="0.09" pos="60.49" lane="96027913#2_1" slope="0.00"/>
        <vehicle id="up_1" x="13.492605" y="55.633769" angle="39.96" type="v1" speed="7.35" pos="6.14" lane=":267701936_2_0" slope="0.00"/>
        <vehicle id="up_2" x="13.492468" y="55.633654" angle="29.31" type="v1" speed="6.46" pos="6.76" lane="-24626686#1_1" slope="0.00"/>
        <vehicle id="up_4" x="13.492016" y="55.633114" angle="13.78" type="v1" speed="9.83" pos="88.44" lane="-355113043#1_1" slope="0.00"/>
        <vehicle id="up_5" x="13.491940" y="55.632784" angle="7.87" type="v1" speed="5.47" pos="15.48" lane="-355113043#1_1" slope="0.00"/>
        <vehicle id="up_6" x="13.491930" y="55.632737" angle="7.87" type="v1" speed="0.00" pos="5.10" lane="-355113043#1_1" slope="0.00"/>
    </timestep>
    <timestep time="26.00">
        <vehicle id="right_0" x="13.492482" y="55.633852" angle="140.05" type="v1" speed="0.00" pos="66.54" lane="96027913#2_1" slope="0.00"/>
        <vehicle id="right_3" x="13.492419" y="55.633893" angle="139.69" type="v1" speed="0.05" pos="60.54" lane="96027913#2_1" slope="0.00"/>
        <vehicle id="up_1" x="13.492690" y="55.633843" angle="32.90" type="v1" speed="9.77" pos="15.91" lane=":267701936_2_0" slope="0.00"/>
        <vehicle id="up_2" x="13.492512" y="55.633701" angle="29.31" type="v1" speed="5.80" pos="12.56" lane="-24626686#1_1" slope="0.00"/>
        <vehicle id="up_4" x="13.492033" y="55.633158" angle="13.78" type="v1" speed="10.03" pos="98.48" lane="-355113043#1_1" slope="0.00"/>
        <vehicle id="up_5" x="13.491946" y="55.632815" angle="7.87" type="v1" speed="6.83" pos="22.30" lane="-355113043#1_1" slope="0.00"/>
        <vehicle id="up_6" x="13.491932" y="55.632744" angle="7.87" type="v1" speed="1.60" pos="6.70" lane="-355113043#1_1" slope="0.00"/>
    </timestep>
    <timestep time="27.00">
        <vehicle id="right_0" x="13.492482" y="55.633852" angle="140.05" type="v1" speed="0.00" pos="66.54" lane="96027913#2_1" slope="0.00"/>
        <vehicle id="right_3" x="13.492419" y="55.633893" angle="139.69" type="v1" speed="0.00" pos="60.54" lane="96027913#2_1" slope="0.00"/>
        <vehicle id="up_1" x="13.492768" y="55.633926" angle="27.15" type="v1" speed="10.51" pos="8.87" lane="-34992983#3_1" slope="0.00"/>
        <vehicle id="up_2" x="13.492584" y="55.633754" angle="40.46" type="v1" speed="7.40" pos="3.96" lane=":267701936_2_0" slope="0.00"/>
        <vehicle id="up_4" x="13.492075" y="55.633236" angle="20.79" type="v1" speed="9.80" pos="8.28" lane=":267701934_7_0" slope="0.00"/>
        <vehicle id="up_5" x="13.491954" y="55.632854" angle="7.87" type="v1" speed="8.66" pos="30.97" lane="-355113043#1_1" slope="0.00"/>
        <vehicle id="up_6" x="13.491935" y="55.632761" angle="7.87" type="v1" speed="3.88" pos="10.58" lane="-355113043#1_1" slope="0.00"/>
    </timestep>
    <timestep time="28.00">
        <vehicle id="right_0" x="13.492482" y="55.633852" angle="140.05" type="v1" speed="0.00" pos="66.54" lane="96027913#2_1" slope="0.00"/>
        <vehicle id="right_3" x="13.492419" y="55.633893" angle="139.69" type="v1" speed="0.00" pos="60.54" lane="96027913#2_1" slope="0.00"/>
        <vehicle id="up_1" x="13.492840" y="55.634010" angle="27.15" type="v1" speed="10.40" pos="19.27" lane="-34992983#3_1" slope="0.00"/>
        <vehicle id="up_2" x="13.492673" y="55.633826" angle="33.58" type="v1" speed="9.83" pos="13.79" lane=":267701936_2_0" slope="0.00"/>
        <vehicle id="up_4" x="13.492146" y="55.633328" angle="27.24" type="v1" speed="11.18" pos="7.93" lane="-24626686#2_1" slope="0.00"/>
        <vehicle id="up_5" x="13.491964" y="55.632901" angle="8.08" type="v1" speed="10.45" pos="41.42" lane="-355113043#1_1" slope="0.00"/>
        <vehicle id="up_6" x="13.491941" y="55.632789" angle="7.87" type="v1" speed="6.13" pos="16.71" lane="-355113043#1_1" slope="0.00"/>
        <vehicle id="up_7" x="13.491930" y="55.632737" angle="7.87" type="v1" speed="0.00" pos="5.10" lane="-355113043#1_1" slope="0.00"/>
    </timestep>
    <timestep time="29.00">
        <vehicle id="right_0" x="13.492482" y="55.633852" angle="140.05" type="v1" speed="0.00" pos="66.54" lane="96027913#2_1" slope="0.00"/>
        <vehicle id="right_3" x="13.492419" y="55.633893" angle="139.69" type="v1" speed="0.00" pos="60.54" lane="96027913#2_1" slope="0.00"/>
        <vehicle id="up_1" x="13.492917" y="55.634099" angle="27.15" type="v1" speed="11.12" pos="30.38" lane="-34992983#3_1" slope="0.00"/>
        <vehicle id="up_2" x="13.492764" y="55.633920" angle="27.15" type="v1" speed="11.95" pos="8.19" lane="-34992983#3_1" slope="0.00"/>
        <vehicle id="up_4" x="13.492244" y="55.633427" angle="30.49" type="v1" speed="12.57" pos="20.50" lane="-24626686#2_1" slope="0.00"/>
        <vehicle id="up_5" x="13.491975" y="55.632954" angle="8.10" type="v1" speed="11.63" pos="53.05" lane="-355113043#1_1" slope="0.00"/>
        <vehicle id="up_6" x="13.491948" y="55.632826" angle="7.87" type="v1" speed="8.02" pos="24.73" lane="-355113043#1_1" slope="0.00"/>
        <vehicle id="up_7" x="13.491932" y="55.632747" angle="7.87" type="v1" speed="2.19" pos="7.29" lane="-355113043#1_1" slope="0.00"/>
    </timestep>
    <timestep time="30.00">
        <vehicle id="right_0" x="13.492482" y="55.633852" angle="140.05" type="v1" speed="0.00" pos="66.54" lane="96027913#2_1" slope="0.00"/>
        <vehicle id="right_3" x="13.492419" y="55.633893" angle="139.69" type="v1" speed="0.00" pos="60.54" lane="96027913#2_1" slope="0.00"/>
        <vehicle id="up_1" x="13.492988" y="55.634186" angle="25.34" type="v1" speed="10.65" pos="5.24" lane="-34992983#1_1" slope="0.00"/>
        <vehicle id="up_2" x="13.492847" y="55.634018" angle="27.15" type="v1" speed="12.07" pos="20.26" lane="-34992983#3_1" slope="0.00"/>
        <vehicle id="up_4" x="13.492356" y="55.633540" angle="30.68" type="v1" speed="14.32" pos="34.82" lane="-24626686#2_1" slope="0.00"/>
        <vehicle id="up_5" x="13.491986" y="55.633003" angle="8.10" type="v1" speed="10.95" pos="64.00" lane="-355113043#1_1" slope="0.00"/>
        <vehicle id="up_6" x="13.491958" y="55.632873" angle="7.87" type="v1" speed="10.44" pos="35.17" lane="-355113043#1_1" slope="0.00"/>
        <vehicle id="up_7" x="13.491936" y="55.632764" angle="7.87" type="v1" speed="3.84" pos="11.13" lane="-355113043#1_1" slope="0.00"/>
        <vehicle id="up_8" x="13.491930" y="55.632737" angle="7.87" type="v1" speed="0.00" pos="5.10" lane="-355113043#1_1" slope="0.00"/>
    </timestep>
    <timestep time="31.00">
        <vehicle id="right_0" x="13.492482" y="55.633852" angle="140.05" type="v1" speed="0.00" pos="66.54" lane="96027913#2_1" slope="0.00"/>
        <vehicle id="right_3" x="13.492419" y="55.633893" angle="139.69" type="v1" speed="0.00" pos="60.54" lane="96027913#2_1" slope="0.00"/>
        <vehicle id="up_1" x="13.493060" y="55.634276" angle="25.34" type="v1" speed="11.04" pos="16.29" lane="-34992983#1_1" slope="0.00"/>
        <vehicle id="up_2" x="13.492930" y="55.634114" angle="27.15" type="v1" speed="11.96" pos="32.22" lane="-34992983#3_1" slope="0.00"/>
        <vehicle id="up_4" x="13.492448" y="55.633634" angle="29.43" type="v1" speed="11.87" pos="4.21" lane="-24626686#1_1" slope="0.00"/>
        <vehicle id="up_5" x="13.491997" y="55.633055" angle="8.10" type="v1" speed="11.40" pos="75.40" lane="-355113043#1_1" slope="0.00"/>
        <vehicle id="up_6" x="13.491969" y="55.632924" angle="8.10" type="v1" speed="11.22" pos="46.39" lane="-355113043#1_1" slope="0.00"/>
        <vehicle id="up_7" x="13.491941" y="55.632789" angle="7.87" type="v1" speed="5.45" pos="16.58" lane="-355113043#1_1" slope="0.00"/>
        <vehicle id="up_8" x="13.491930" y="55.632737" angle="7.87" type="v1" speed="0.02" pos="5.12" lane="-355113043#1_1" slope="0.00"/>
    </timestep>
    <timestep time="32.00">
        <vehicle id="right_0" x="13.492482" y="55.633852" angle="140.05" type="v1" speed="0.00" pos="66.54" lane="96027913#2_1" slope="0.00"/>
        <vehicle id="right_3" x="13.492419" y="55.633893" angle="139.69" type="v1" speed="0.00" pos="60.54" lane="96027913#2_1" slope="0.00"/>
        <vehicle id="up_1" x="13.493128" y="55.634363" angle="25.34" type="v1" speed="10.55" pos="26.84" lane="-34992983#1_1" slope="0.00"/>
        <vehicle id="up_2" x="13.493004" y="55.634205" angle="25.34" type="v1" speed="11.14" pos="7.57" lane="-34992983#1_1" slope="0.00"/>
        <vehicle id="up_4" x="13.492506" y="55.633695" angle="29.31" type="v1" speed="7.58" pos="11.79" lane="-24626686#1_1" slope="0.00"/>
        <vehicle id="up_5" x="13.492013" y="55.633106" angle="13.78" type="v1" speed="11.36" pos="86.76" lane="-355113043#1_1" slope="0.00"/>
        <vehicle id="up_6" x="13.491979" y="55.632972" angle="8.10" type="v1" speed="10.68" pos="57.07" lane="-355113043#1_1" slope="0.00"/>
        <vehicle id="up_7" x="13.491948" y="55.632822" angle="7.87" type="v1" speed="7.33" pos="23.91" lane="-355113043#1_1" slope="0.00"/>
        <vehicle id="up_8" x="13.491932" y="55.632743" angle="7.87" type="v1" speed="1.46" pos="6.58" lane="-355113043#1_1" slope="0.00"/>
    </timestep>
    <timestep time="33.00">
        <vehicle id="right_0" x="13.492482" y="55.633852" angle="140.05" type="v1" speed="0.00" pos="66.54" lane="96027913#2_1" slope="0.00"/>
        <vehicle id="right_3" x="13.492419" y="55.633893" angle="139.69" type="v1" speed="0.00" pos="60.54" lane="96027913#2_1" slope="0.00"/>
        <vehicle id="up_1" x="13.493200" y="55.634453" angle="25.34" type="v1" speed="11.07" pos="37.90" lane="-34992983#1_1" slope="0.00"/>
        <vehicle id="up_2" x="13.493071" y="55.634290" angle="25.34" type="v1" speed="10.34" pos="17.91" lane="-34992983#1_1" slope="0.00"/>
        <vehicle id="up_4" x="13.492596" y="55.633762" angle="40.40" type="v1" speed="9.32" pos="5.11" lane=":267701936_2_0" slope="0.00"/>
        <vehicle id="up_5" x="13.492033" y="55.633159" angle="13.78" type="v1" speed="11.90" pos="98.66" lane="-355113043#1_1" slope="0.00"/>
        <vehicle id="up_6" x="13.491989" y="55.633018" angle="8.10" type="v1" speed="10.13" pos="67.20" lane="-355113043#1_1" slope="0.00"/>
        <vehicle id="up_7" x="13.491956" y="55.632861" angle="7.87" type="v1" speed="8.68" pos="32.59" lane="-355113043#1_1" slope="0.00"/>
        <vehicle id="up_8" x="13.491935" y="55.632758" angle="7.87" type="v1" speed="3.14" pos="9.73" lane="-355113043#1_1" slope="0.00"/>
    </timestep>
    <timestep time="34.00">
        <vehicle id="right_0" x="13.492482" y="55.633852" angle="140.05" type="v1" speed="0.00" pos="66.54" lane="96027913#2_1" slope="0.00"/>
        <vehicle id="right_3" x="13.492419" y="55.633893" angle="139.69" type="v1" speed="0.00" pos="60.54" lane="96027913#2_1" slope="0.00"/>
        <vehicle id="up_1" x="13.493268" y="55.634539" angle="25.34" type="v1" speed="10.46" pos="48.36" lane="-34992983#1_1" slope="0.00"/>
        <vehicle id="up_2" x="13.493144" y="55.634382" angle="25.34" type="v1" speed="11.30" pos="29.21" lane="-34992983#1_1" slope="0.00"/>
        <vehicle id="up_4" x="13.492693" y="55.633845" angle="32.80" type="v1" speed="11.12" pos="16.23" lane=":267701936_2_0" slope="0.00"/>
        <vehicle id="up_5" x="13.492086" y="55.633252" angle="22.64" type="v1" speed="11.57" pos="10.23" lane=":267701934_7_0" slope="0.00"/>
        <vehicle id="up_6" x="13.491999" y="55.633065" angle="8.10" type="v1" speed="10.40" pos="77.60" lane="-355113043#1_1" slope="0.00"/>
        <vehicle id="up_7" x="13.491966" y="55.632909" angle="8.10" type="v1" speed="10.62" pos="43.21" lane="-355113043#1_1" slope="0.00"/>
        <vehicle id="up_8" x="13.491940" y="55.632783" angle="7.87" type="v1" speed="5.67" pos="15.40" lane="-355113043#1_1" slope="0.00"/>
        <vehicle id="up_9" x="13.491930" y="55.632737" angle="7.87" type="v1" speed="0.00" pos="5.10" lane="-355113043#1_1" slope="0.00"/>
    </timestep>
    <timestep time="35.00">
        <vehicle id="right_0" x="13.492482" y="55.633852" angle="140.05" type="v1" speed="0.00" pos="66.54" lane="96027913#2_1" slope="0.00"/>
        <vehicle id="right_3" x="13.492419" y="55.633893" angle="139.69" type="v1" speed="0.00" pos="60.54" lane="96027913#2_1" slope="0.00"/>
        <vehicle id="up_1" x="13.493341" y="55.634632" angle="25.34" type="v1" speed="11.31" pos="59.68" lane="-34992983#1_1" slope="0.00"/>
        <vehicle id="up_2" x="13.493215" y="55.634473" angle="25.34" type="v1" speed="11.03" pos="40.24" lane="-34992983#1_1" slope="0.00"/>
        <vehicle id="up_4" x="13.492792" y="55.633954" angle="27.15" type="v1" speed="13.67" pos="12.35" lane="-34992983#3_1" slope="0.00"/>
        <vehicle id="up_5" x="13.492183" y="55.633365" angle="30.48" type="v1" speed="13.95" pos="12.65" lane="-24626686#2_1" slope="0.00"/>
        <vehicle id="up_6" x="13.492016" y="55.633115" angle="13.78" type="v1" speed="11.12" pos="88.72" lane="-355113043#1_1" slope="0.00"/>
        <vehicle id="up_7" x="13.491976" y="55.632956" angle="8.10" type="v1" speed="10.34" pos="53.55" lane="-355113043#1_1" slope="0.00"/>
        <vehicle id="up_8" x="13.491947" y="55.632816" angle="7.87" type="v1" speed="7.23" pos="22.63" lane="-355113043#1_1" slope="0.00"/>
        <vehicle id="up_9" x="13.491933" y="55.632748" angle="7.87" type="v1" speed="2.51" pos="7.61" lane="-355113043#1_1" slope="0.00"/>
    </timestep>
    <timestep time="36.00">
        <vehicle id="right_0" x="13.492482" y="55.633852" angle="140.05" type="v1" speed="0.00" pos="66.54" lane="96027913#2_1" slope="0.00"/>
        <vehicle id="right_3" x="13.492419" y="55.633893" angle="139.69" type="v1" speed="0.00" pos="60.54" lane="96027913#2_1" slope="0.00"/>
        <vehicle id="up_1" x="13.493414" y="55.634724" angle="25.34" type="v1" speed="11.23" pos="70.91" lane="-34992983#1_1" slope="0.00"/>
        <vehicle id="up_2" x="13.493292" y="55.634570" angle="25.34" type="v1" speed="11.85" pos="52.09" lane="-34992983#1_1" slope="0.00"/>
        <vehicle id="up_4" x="13.492882" y="55.634059" angle="27.15" type="v1" speed="13.00" pos="25.35" lane="-34992983#3_1" slope="0.00"/>
        <vehicle id="up_5" x="13.492303" y="55.633486" angle="30.68" type="v1" speed="15.32" pos="27.97" lane="-24626686#2_1" slope="0.00"/>
        <vehicle id="up_6" x="13.492035" y="55.633163" angle="13.78" type="v1" speed="10.82" pos="99.54" lane="-355113043#1_1" slope="0.00"/>
        <vehicle id="up_7" x="13.491986" y="55.633002" angle="8.10" type="v1" speed="10.24" pos="63.79" lane="-355113043#1_1" slope="0.00"/>
        <vehicle id="up_8" x="13.491955" y="55.632859" angle="7.87" type="v1" speed="9.46" pos="32.09" lane="-355113043#1_1" slope="0.00"/>
        <vehicle id="up_9" x="13.491936" y="55.632766" angle="7.87" type="v1" speed="3.87" pos="11.48" lane="-355113043#1_1" slope="0.00"/>
    </timestep>
    <timestep time="37.00">