<?xml version="1.0" encoding="UTF-8"?>

<!-- generated on 2022-08-30 15:58:05 by Eclipse SUMO sumo Version 1.10.0
<configuration xmlns:xsi="http://www.w3.org/2001/XMLSchema-instance" xsi:noNamespaceSchemaLocation="http://sumo.dlr.de/xsd/sumoConfiguration.xsd">

    <input>
        <net-file value="./input/Veberod_intersection_pedestrian.net.xml"/>
        <route-files value="./input/Veberod_intersection_pedestrian.rou.xml,./input/Veberod_intersection_pedestrian.trip.xml"/>
        <additional-files value="./input/Veberod_intersection_pedestrian.add.xml"/>
    </input>

    <output>
        <fcd-output value="./output/veberod-fcd.xml"/>
        <fcd-output.geo value="true"/>
    </output>

    <time>
        <begin value="0"/>
        <end value="3600"/>
        <step-length value="1"/>
    </time>

    <report>
        <no-warnings value="true"/>
        <no-step-log value="true"/>
    </report>

    <traci_server>
        <remote-port value="59225"/>
    </traci_server>

    <gui_only>
        <gui-settings-file value="./input/viewsettings.xml"/>
        <tracker-interval value="1"/>
    </gui_only>

</configuration>
-->

<fcd-export xmlns:xsi="http://www.w3.org/2001/XMLSchema-instance" xsi:noNamespaceSchemaLocation="http://sumo.dlr.de/xsd/fcd_file.xsd">
    <timestep time="0.00"/>
    <timestep time="1.00"/>
    <timestep time="2.00">
        <vehicle id="up_0" x="13.491935" y="55.632759" angle="7.870063" type="v1" speed="0.000000" pos="5.100000" lane="-355113043#1_1" slope="0.000000"/>
    </timestep>
    <timestep time="3.00">
        <vehicle id="up_0" x="13.491939" y="55.632777" angle="7.870063" type="v1" speed="2.014978" pos="7.114978" lane="-355113043#1_1" slope="0.000000"/>
    </timestep>
    <timestep time="4.00">
        <vehicle id="right_1" x="13.490762" y="55.635001" angle="157.287464" type="v1" speed="0.000000" pos="5.100000" lane="96027913#0_1" slope="0.000000"/>
        <vehicle id="up_0" x="13.491946" y="55.632812" angle="7.870063" type="v1" speed="3.837898" pos="10.952876" lane="-355113043#1_1" slope="0.000000"/>
    </timestep>
    <timestep time="5.00">
        <vehicle id="right_1" x="13.490774" y="55.634988" angle="154.198516" type="v1" speed="1.727543" pos="6.827543" lane="96027913#0_1" slope="0.000000"/>
        <vehicle id="up_0" x="13.491955" y="55.632860" angle="7.870063" type="v1" speed="5.370366" pos="16.323242" lane="-355113043#1_1" slope="0.000000"/>
        <vehicle id="up_2" x="13.491935" y="55.632759" angle="7.870063" type="v1" speed="0.000000" pos="5.100000" lane="-355113043#1_1" slope="0.000000"/>
    </timestep>
    <timestep time="6.00">
        <vehicle id="right_1" x="13.490802" y="55.634963" angle="150.365552" type="v1" speed="3.231906" pos="10.059448" lane="96027913#0_1" slope="0.000000"/>
        <vehicle id="up_0" x="13.491970" y="55.632929" angle="8.100918" type="v1" speed="7.795034" pos="24.118276" lane="-355113043#1_1" slope="0.000000"/>
        <vehicle id="up_2" x="13.491937" y="55.632772" angle="7.870063" type="v1" speed="1.444826" pos="6.544826" lane="-355113043#1_1" slope="0.000000"/>
    </timestep>
    <timestep time="7.00">
        <vehicle id="right_1" x="13.490855" y="55.634921" angle="145.283441" type="v1" speed="5.822080" pos="15.881529" lane="96027913#0_1" slope="0.000000"/>
        <vehicle id="right_4" x="13.490762" y="55.635001" angle="157.287464" type="v1" speed="0.000000" pos="5.100000" lane="96027913#0_1" slope="0.000000"/>
        <vehicle id="up_0" x="13.491988" y="55.633015" angle="8.100918" type="v1" speed="9.559280" pos="33.677556" lane="-355113043#1_1" slope="0.000000"/>
        <vehicle id="up_2" x="13.491943" y="55.632798" angle="7.870063" type="v1" speed="2.874362" pos="9.419187" lane="-355113043#1_1" slope="0.000000"/>
    </timestep>
    <timestep time="8.00">
        <vehicle id="right_1" x="13.490937" y="55.634864" angle="142.175987" type="v1" speed="8.218593" pos="24.100122" lane="96027913#0_1" slope="0.000000"/>
        <vehicle id="right_4" x="13.490779" y="55.634983" angle="153.122296" type="v1" speed="2.289535" pos="7.389535" lane="96027913#0_1" slope="0.000000"/>
        <vehicle id="up_0" x="13.492016" y="55.633113" angle="12.621137" type="v1" speed="11.101078" pos="44.778634" lane="-355113043#1_1" slope="0.000000"/>
        <vehicle id="up_2" x="13.491952" y="55.632843" angle="7.870063" type="v1" speed="5.026220" pos="14.445407" lane="-355113043#1_1" slope="0.000000"/>
        <vehicle id="up_3" x="13.491935" y="55.632759" angle="7.870063" type="v1" speed="0.000000" pos="5.100000" lane="-355113043#1_1" slope="0.000000"/>
    </timestep>
    <timestep time="9.00">
        <vehicle id="right_1" x="13.491043" y="55.634790" angle="142.175987" type="v1" speed="10.636905" pos="34.737026" lane="96027913#0_1" slope="0.000000"/>
        <vehicle id="right_4" x="13.490816" y="55.634951" angle="148.650310" type="v1" speed="4.331450" pos="11.720985" lane="96027913#0_1" slope="0.000000"/>
        <vehicle id="up_0" x="13.492056" y="55.633207" angle="16.028933" type="v1" speed="10.704128" pos="4.842762" lane=":267701934_7_0" slope="0.000000"/>
        <vehicle id="up_2" x="13.491964" y="55.632901" angle="7.976138" type="v1" speed="6.499599" pos="20.945006" lane="-355113043#1_1" slope="0.000000"/>
        <vehicle id="up_3" x="13.491939" y="55.632780" angle="7.870063" type="v1" speed="2.289232" pos="7.389232" lane="-355113043#1_1" slope="0.000000"/>
    </timestep>
    <timestep time="10.00">
        <vehicle id="right_1" x="13.491172" y="55.634704" angle="140.346764" type="v1" speed="12.599118" pos="47.336144" lane="96027913#0_1" slope="0.000000"/>
        <vehicle id="right_4" x="13.490877" y="55.634906" angle="142.592639" type="v1" speed="6.366422" pos="18.087407" lane="96027913#0_1" slope="0.000000"/>
        <vehicle id="up_0" x="13.492131" y="55.633313" angle="24.167995" type="v1" speed="12.663338" pos="5.976100" lane="-24626686#2_1" slope="0.000000"/>
        <vehicle id="up_2" x="13.491980" y="55.632977" angle="8.100918" type="v1" speed="8.529340" pos="29.474346" lane="-355113043#1_1" slope="0.000000"/>
        <vehicle id="up_3" x="13.491948" y="55.632821" angle="7.870063" type="v1" speed="4.609346" pos="11.998578" lane="-355113043#1_1" slope="0.000000"/>
        <vehicle id="up_5" x="13.491935" y="55.632759" angle="7.870063" type="v1" speed="0.000000" pos="5.100000" lane="-355113043#1_1" slope="0.000000"/>
    </timestep>
    <timestep time="11.00">
        <vehicle id="right_1" x="13.491322" y="55.634607" angle="140.346764" type="v1" speed="14.453046" pos="61.789191" lane="96027913#0_1" slope="0.000000"/>
        <vehicle id="right_4" x="13.490960" y="55.634848" angle="142.175987" type="v1" speed="8.337723" pos="26.425130" lane="96027913#0_1" slope="0.000000"/>
        <vehicle id="up_0" x="13.492245" y="55.633428" angle="30.492442" type="v1" speed="14.692963" pos="20.669063" lane="-24626686#2_1" slope="0.000000"/>
        <vehicle id="up_2" x="13.491999" y="55.633065" angle="8.100918" type="v1" speed="9.857621" pos="39.331967" lane="-355113043#1_1" slope="0.000000"/>
        <vehicle id="up_3" x="13.491959" y="55.632878" angle="7.870063" type="v1" speed="6.387613" pos="18.386191" lane="-355113043#1_1" slope="0.000000"/>
        <vehicle id="up_5" x="13.491936" y="55.632766" angle="7.870063" type="v1" speed="0.736875" pos="5.836875" lane="-355113043#1_1" slope="0.000000"/>
    </timestep>
    <timestep time="12.00">
        <vehicle id="right_1" x="13.491490" y="55.634497" angle="140.442084" type="v1" speed="16.234713" pos="78.023904" lane="96027913#0_1" slope="0.000000"/>
        <vehicle id="right_4" x="13.491066" y="55.634774" angle="142.175987" type="v1" speed="10.664228" pos="37.089358" lane="96027913#0_1" slope="0.000000"/>
        <vehicle id="up_0" x="13.492367" y="55.633551" angle="30.677280" type="v1" speed="15.534410" pos="36.203473" lane="-24626686#2_1" slope="0.000000"/>
        <vehicle id="up_2" x="13.492036" y="55.633166" angle="13.815017" type="v1" speed="11.449146" pos="0.141113" lane=":267701934_7_0" slope="0.000000"/>
        <vehicle id="up_3" x="13.491974" y="55.632949" angle="8.100918" type="v1" speed="7.881834" pos="26.268025" lane="-355113043#1_1" slope="0.000000"/>
        <vehicle id="up_5" x="13.491942" y="55.632794" angle="7.870063" type="v1" speed="3.145918" pos="8.982793" lane="-355113043#1_1" slope="0.000000"/>
    </timestep>
    <timestep time="13.00">
        <vehicle id="right_1" x="13.491678" y="55.634374" angle="140.442084" type="v1" speed="18.208934" pos="96.232837" lane="96027913#0_1" slope="0.000000"/>
        <vehicle id="right_4" x="13.491200" y="55.634686" angle="140.346764" type="v1" speed="12.950548" pos="50.039906" lane="96027913#0_1" slope="0.000000"/>
        <vehicle id="right_7" x="13.490762" y="55.635001" angle="157.287464" type="v1" speed="0.000000" pos="5.100000" lane="96027913#0_1" slope="0.000000"/>
        <vehicle id="up_0" x="13.492459" y="55.633645" angle="29.312546" type="v1" speed="11.854078" pos="5.567551" lane="-24626686#1_1" slope="0.000000"/>
        <vehicle id="up_2" x="13.492109" y="55.633284" angle="22.983231" type="v1" speed="13.933429" pos="2.544542" lane="-24626686#2_1" slope="0.000000"/>
        <vehicle id="up_3" x="13.491990" y="55.633025" angle="8.100918" type="v1" speed="8.553142" pos="34.821167" lane="-355113043#1_1" slope="0.000000"/>
        <vehicle id="up_5" x="13.491951" y="55.632838" angle="7.870063" type="v1" speed="4.977029" pos="13.959822" lane="-355113043#1_1" slope="0.000000"/>
        <vehicle id="up_6" x="13.491935" y="55.632759" angle="7.870063" type="v1" speed="0.000000" pos="5.100000" lane="-355113043#1_1" slope="0.000000"/>
    </timestep>
    <timestep time="14.00">
        <vehicle id="right_1" x="13.491893" y="55.634234" angle="139.832592" type="v1" speed="20.612751" pos="10.125588" lane="96027913#2_1" slope="0.000000"/>
        <vehicle id="right_4" x="13.491353" y="55.634586" angle="140.393304" type="v1" speed="14.763916" pos="64.803822" lane="96027913#0_1" slope="0.000000"/>
        <vehicle id="right_7" x="13.490780" y="55.634983" angle="153.030264" type="v1" speed="2.378765" pos="7.478765" lane="96027913#0_1" slope="0.000000"/>
        <vehicle id="up_0" x="13.492514" y="55.633704" angle="29.312546" type="v1" speed="7.354078" pos="12.921629" lane="-24626686#1_1" slope="0.000000"/>
        <vehicle id="up_2" x="13.492226" y="55.633409" angle="30.478751" type="v1" speed="15.660719" pos="18.205260" lane="-24626686#2_1" slope="0.000000"/>
        <vehicle id="up_3" x="13.492013" y="55.633107" angle="11.843790" type="v1" speed="9.273596" pos="44.094763" lane="-355113043#1_1" slope="0.000000"/>
        <vehicle id="up_5" x="13.491964" y="55.632899" angle="7.967608" type="v1" speed="6.800449" pos="20.760272" lane="-355113043#1_1" slope="0.000000"/>
        <vehicle id="up_6" x="13.491939" y="55.632778" angle="7.870063" type="v1" speed="2.071168" pos="7.171168" lane="-355113043#1_1" slope="0.000000"/>
    </timestep>
    <timestep time="15.00">
        <vehicle id="right_1" x="13.492104" y="55.634098" angle="140.285809" type="v1" speed="20.148428" pos="30.274016" lane="96027913#2_1" slope="0.000000"/>
        <vehicle id="right_4" x="13.491526" y="55.634473" angle="140.442084" type="v1" speed="16.708031" pos="81.511853" lane="96027913#0_1" slope="0.000000"/>
        <vehicle id="right_7" x="13.490816" y="55.634950" angle="148.602398" type="v1" speed="4.288673" pos="11.767438" lane="96027913#0_1" slope="0.000000"/>
        <vehicle id="up_0" x="13.492606" y="55.633770" angle="39.939609" type="v1" speed="9.260266" pos="6.181895" lane=":267701936_2_0" slope="0.000000"/>
        <vehicle id="up_2" x="13.492336" y="55.633520" angle="30.677280" type="v1" speed="14.087802" pos="32.293062" lane="-24626686#2_1" slope="0.000000"/>
        <vehicle id="up_3" x="13.492044" y="55.633184" angle="14.268651" type="v1" speed="8.662996" pos="2.117759" lane=":267701934_7_0" slope="0.000000"/>
        <vehicle id="up_5" x="13.491979" y="55.632973" angle="8.100918" type="v1" speed="8.209920" pos="28.970191" lane="-355113043#1_1" slope="0.000000"/>
        <vehicle id="up_6" x="13.491946" y="55.632812" angle="7.870063" type="v1" speed="3.792970" pos="10.964138" lane="-355113043#1_1" slope="0.000000"/>
    </timestep>
    <timestep time="16.00">
        <vehicle id="right_1" x="13.492265" y="55.633991" angle="139.943701" type="v1" speed="15.648428" pos="45.922443" lane="96027913#2_1" slope="0.000000"/>
        <vehicle id="right_4" x="13.491718" y="55.634348" angle="140.442084" type="v1" speed="18.558233" pos="100.070086" lane="96027913#0_1" slope="0.000000"/>
        <vehicle id="right_7" x="13.490878" y="55.634905" angle="142.461743" type="v1" speed="6.427440" pos="18.194878" lane="96027913#0_1" slope="0.000000"/>
        <vehicle id="up_0" x="13.492706" y="55.633858" angle="32.419637" type="v1" speed="11.674608" pos="0.306503" lane="-34992983#3_1" slope="0.000000"/>
        <vehicle id="up_2" x="13.492432" y="55.633617" angle="30.005507" type="v1" speed="12.278716" pos="2.081778" lane="-24626686#1_1" slope="0.000000"/>
        <vehicle id="up_3" x="13.492098" y="55.633268" angle="23.165226" type="v1" speed="10.044851" pos="0.632610" lane="-24626686#2_1" slope="0.000000"/>
        <vehicle id="up_5" x="13.491999" y="55.633063" angle="8.100918" type="v1" speed="10.091698" pos="39.061890" lane="-355113043#1_1" slope="0.000000"/>
        <vehicle id="up_6" x="13.491955" y="55.632858" angle="7.870063" type="v1" speed="5.193821" pos="16.157959" lane="-355113043#1_1" slope="0.000000"/>
    </timestep>
    <timestep time="17.00">
        <vehicle id="right_1" x="13.492382" y="55.633916" angle="139.688184" type="v1" speed="11.148428" pos="57.070871" lane="96027913#2_1" slope="0.000000"/>
        <vehicle id="right_4" x="13.491926" y="55.634213" angle="139.832592" type="v1" speed="19.920005" pos="13.270091" lane="96027913#2_1" slope="0.000000"/>
        <vehicle id="right_7" x="13.490961" y="55.634847" angle="142.175987" type="v1" speed="8.285606" pos="26.480484" lane="96027913#0_1" slope="0.000000"/>
        <vehicle id="up_0" x="13.492799" y="55.633962" angle="27.150877" type="v1" speed="13.015955" pos="13.322458" lane="-34992983#3_1" slope="0.000000"/>
        <vehicle id="up_2" x="13.492497" y="55.633686" angle="29.312546" type="v1" speed="8.595461" pos="10.677238" lane="-24626686#1_1" slope="0.000000"/>
        <vehicle id="up_3" x="13.492180" y="55.633363" angle="30.478751" type="v1" speed="11.705192" pos="12.337802" lane="-24626686#2_1" slope="0.000000"/>
        <vehicle id="up_5" x="13.492034" y="55.633160" angle="13.782662" type="v1" speed="11.000992" pos="50.062882" lane="-355113043#1_1" slope="0.000000"/>
        <vehicle id="up_6" x="13.491968" y="55.632917" angle="8.061039" type="v1" speed="6.625893" pos="22.783852" lane="-355113043#1_1" slope="0.000000"/>
    </timestep>
    <timestep time="18.00">
        <vehicle id="right_1" x="13.492452" y="55.633872" angle="139.688184" type="v1" speed="6.648428" pos="63.719299" lane="96027913#2_1" slope="0.000000"/>
        <vehicle id="right_4" x="13.492112" y="55.634093" angle="140.514896" type="v1" speed="17.760190" pos="31.030280" lane="96027913#2_1" slope="0.000000"/>
        <vehicle id="right_7" x="13.491067" y="55.634773" angle="142.175987" type="v1" speed="10.691355" pos="37.171839" lane="96027913#0_1" slope="0.000000"/>
        <vehicle id="up_0" x="13.492897" y="55.634076" angle="27.150877" type="v1" speed="14.182072" pos="27.504530" lane="-34992983#3_1" slope="0.000000"/>
        <vehicle id="up_2" x="13.492532" y="55.633718" angle="32.008812" type="v1" speed="4.095461" pos="14.772699" lane="-24626686#1_1" slope="0.000000"/>
        <vehicle id="up_3" x="13.492283" y="55.633466" angle="30.677280" type="v1" speed="13.094371" pos="25.432174" lane="-24626686#2_1" slope="0.000000"/>
        <vehicle id="up_5" x="13.492088" y="55.633255" angle="22.924321" type="v1" speed="11.121626" pos="10.544508" lane=":267701934_7_0" slope="0.000000"/>
        <vehicle id="up_6" x="13.491983" y="55.632991" angle="8.100918" type="v1" speed="8.212591" pos="30.996443" lane="-355113043#1_1" slope="0.000000"/>
        <person id="ped_0" x="13.492861" y="55.634165" angle="207.147673" speed="0.000000" pos="0.000000" edge="34992983#2" slope="0.000000"/>
    </timestep>
    <timestep time="19.00">
        <vehicle id="right_1" x="13.492475" y="55.633857" angle="139.904486" type="v1" speed="2.148428" pos="65.867726" lane="96027913#2_1" slope="0.000000"/>
        <vehicle id="right_4" x="13.492251" y="55.634000" angle="140.366996" type="v1" speed="13.616391" pos="44.646672" lane="96027913#2_1" slope="0.000000"/>
        <vehicle id="right_7" x="13.491196" y="55.634689" angle="140.346764" type="v1" speed="12.446912" pos="49.618751" lane="96027913#0_1" slope="0.000000"/>
        <vehicle id="up_0" x="13.492990" y="55.634187" angle="25.344261" type="v1" speed="13.719091" pos="5.433620" lane="-34992983#1_1" slope="0.000000"/>
        <vehicle id="up_2" x="13.492589" y="55.633758" angle="40.431439" type="v1" speed="5.688222" pos="4.460921" lane=":267701936_2_0" slope="0.000000"/>
        <vehicle id="up_3" x="13.492379" y="55.633562" angle="30.677280" type="v1" speed="12.259614" pos="37.691788" lane="-24626686#2_1" slope="0.000000"/>
        <vehicle id="up_5" x="13.492182" y="55.633364" angle="30.478751" type="v1" speed="13.505769" pos="12.520277" lane="-24626686#2_1" slope="0.000000"/>
        <vehicle id="up_6" x="13.492004" y="55.633085" angle="8.895926" type="v1" speed="10.505461" pos="41.501904" lane="-355113043#1_1" slope="0.000000"/>
        <vehicle id="up_8" x="13.491935" y="55.632759" angle="7.870063" type="v1" speed="0.000000" pos="5.100000" lane="-355113043#1_1" slope="0.000000"/>
        <person id="ped_0" x="13.492853" y="55.634156" angle="207.147673" speed="1.113119" pos="1.113119" edge="34992983#2" slope="0.000000"/>
        <person id="ped_1" x="13.491748" y="55.634284" angle="139.824488" speed="0.000000" pos="0.000000" edge="96027913#2" slope="0.000000"/>
    </timestep>
    <timestep time="20.00">
        <vehicle id="right_1" x="13.492479" y="55.633854" angle="139.983291" type="v1" speed="0.363906" pos="66.231633" lane="96027913#2_1" slope="0.000000"/>
        <vehicle id="right_4" x="13.492349" y="55.633938" angle="139.688184" type="v1" speed="9.236529" pos="53.883201" lane="96027913#2_1" slope="0.000000"/>
        <vehicle id="right_7" x="13.491339" y="55.634595" angle="140.367689" type="v1" speed="13.841451" pos="63.460203" lane="96027913#0_1" slope="0.000000"/>
        <vehicle id="up_0" x="13.493081" y="55.634303" angle="25.344261" type="v1" speed="14.110343" pos="19.543963" lane="-34992983#1_1" slope="0.000000"/>
        <vehicle id="up_2" x="13.492655" y="55.633810" angle="35.784453" type="v1" speed="7.144717" pos="11.605638" lane=":267701936_2_0" slope="0.000000"/>
        <vehicle id="up_3" x="13.492462" y="55.633649" angle="29.312546" type="v1" speed="10.833963" pos="6.035751" lane="-24626686#1_1" slope="0.000000"/>
        <vehicle id="up_5" x="13.492284" y="55.633467" angle="30.677280" type="v1" speed="13.070543" pos="25.590820" lane="-24626686#2_1" slope="0.000000"/>
        <vehicle id="up_6" x="13.492040" y="55.633176" angle="14.065307" type="v1" speed="10.370223" pos="1.232127" lane=":267701934_7_0" slope="0.000000"/>
        <vehicle id="up_8" x="13.491937" y="55.632771" angle="7.870063" type="v1" speed="1.374266" pos="6.474266" lane="-355113043#1_1" slope="0.000000"/>
        <person id="ped_0" x="13.492845" y="55.634147" angle="207.147673" speed="1.161478" pos="2.274597" edge="34992983#2" slope="0.000000"/>
        <person id="ped_1" x="13.491763" y="55.634274" angle="139.824488" speed="1.370799" pos="1.370799" edge="96027913#2" slope="0.000000"/>
    </timestep>
    <timestep time="21.00">
        <vehicle id="right_1" x="13.492481" y="55.633853" angle="140.024099" type="v1" speed="0.188444" pos="66.420076" lane="96027913#2_1" slope="0.000000"/>
        <vehicle id="right_4" x="13.492405" y="55.633902" angle="139.688184" type="v1" speed="5.326525" pos="59.209725" lane="96027913#2_1" slope="0.000000"/>
        <vehicle id="right_7" x="13.491506" y="55.634486" angle="140.442084" type="v1" speed="16.128301" pos="79.588504" lane="96027913#0_1" slope="0.000000"/>
        <vehicle id="up_0" x="13.493169" y="55.634415" angle="25.344261" type="v1" speed="13.616551" pos="33.160514" lane="-34992983#1_1" slope="0.000000"/>
        <vehicle id="up_2" x="13.492732" y="55.633884" angle="31.181014" type="v1" speed="9.574998" pos="3.630636" lane="-34992983#3_1" slope="0.000000"/>
        <vehicle id="up_3" x="13.492513" y="55.633702" angle="29.312546" type="v1" speed="6.669287" pos="12.705038" lane="-24626686#1_1" slope="0.000000"/>
        <vehicle id="up_5" x="13.492380" y="55.633564" angle="30.677280" type="v1" speed="12.286042" pos="37.876862" lane="-24626686#2_1" slope="0.000000"/>
        <vehicle id="up_6" x="13.492103" y="55.633276" angle="23.126701" type="v1" speed="11.811426" pos="1.513553" lane="-24626686#2_1" slope="0.000000"/>
        <vehicle id="up_8" x="13.491944" y="55.632803" angle="7.870063" type="v1" speed="3.513733" pos="9.987999" lane="-355113043#1_1" slope="0.000000"/>
        <person id="ped_0" x="13.492837" y="55.634137" angle="207.147673" speed="1.221360" pos="3.495956" edge="34992983#2" slope="0.000000"/>
        <person id="ped_1" x="13.491775" y="55.634266" angle="139.824488" speed="1.220155" pos="2.590954" edge="96027913#2" slope="0.000000"/>
    </timestep>
    <timestep time="22.00">
        <vehicle id="right_1" x="13.492482" y="55.633853" angle="140.044795" type="v1" speed="0.095568" pos="66.515644" lane="96027913#2_1" slope="0.000000"/>
        <vehicle id="right_4" x="13.492417" y="55.633894" angle="139.688184" type="v1" speed="1.179947" pos="60.389672" lane="96027913#2_1" slope="0.000000"/>
        <vehicle id="right_7" x="13.491696" y="55.634362" angle="140.442084" type="v1" speed="18.391633" pos="97.980137" lane="96027913#0_1" slope="0.000000"/>
        <vehicle id="right_9" x="13.490762" y="55.635001" angle="157.287464" type="v1" speed="0.000000" pos="5.100000" lane="96027913#0_1" slope="0.000000"/>
        <vehicle id="up_0" x="13.493261" y="55.634530" angle="25.344261" type="v1" speed="14.132701" pos="47.293215" lane="-34992983#1_1" slope="0.000000"/>
        <vehicle id="up_2" x="13.492811" y="55.633976" angle="27.150877" type="v1" speed="11.435377" pos="15.066014" lane="-34992983#3_1" slope="0.000000"/>
        <vehicle id="up_3" x="13.492596" y="55.633762" angle="40.398119" type="v1" speed="8.409891" pos="5.114928" lane=":267701936_2_0" slope="0.000000"/>
        <vehicle id="up_5" x="13.492443" y="55.633628" angle="29.609701" type="v1" speed="8.147677" pos="3.534538" lane="-24626686#1_1" slope="0.000000"/>
        <vehicle id="up_6" x="13.492199" y="55.633382" angle="30.478751" type="v1" speed="13.247143" pos="14.760696" lane="-24626686#2_1" slope="0.000000"/>
        <vehicle id="up_8" x="13.491953" y="55.632848" angle="7.870063" type="v1" speed="5.089555" pos="15.077554" lane="-355113043#1_1" slope="0.000000"/>
        <person id="ped_0" x="13.492828" y="55.634126" angle="207.147673" speed="1.342677" pos="4.838633" edge="34992983#2" slope="0.000000"/>
        <person id="ped_1" x="13.491788" y="55.634258" angle="139.824488" speed="1.177740" pos="3.768694" edge="96027913#2" slope="0.000000"/>
    </timestep>
    <timestep time="23.00">
        <vehicle id="right_1" x="13.492482" y="55.633852" angle="140.047964" type="v1" speed="0.014638" pos="66.530282" lane="96027913#2_1" slope="0.000000"/>
        <vehicle id="right_4" x="13.492419" y="55.633893" angle="139.688184" type="v1" speed="0.106419" pos="60.496091" lane="96027913#2_1" slope="0.000000"/>
        <vehicle id="right_7" x="13.491904" y="55.634227" angle="139.832592" type="v1" speed="19.933851" pos="11.193988" lane="96027913#2_1" slope="0.000000"/>
        <vehicle id="right_9" x="13.490779" y="55.634983" angle="153.036919" type="v1" speed="2.372313" pos="7.472313" lane="96027913#0_1" slope="0.000000"/>
        <vehicle id="up_0" x="13.493349" y="55.634642" angle="25.344261" type="v1" speed="13.605870" pos="60.899085" lane="-34992983#1_1" slope="0.000000"/>
        <vehicle id="up_2" x="13.492908" y="55.634088" angle="27.150877" type="v1" speed="13.967233" pos="29.033247" lane="-34992983#3_1" slope="0.000000"/>
        <vehicle id="up_3" x="13.492688" y="55.633841" angle="32.983298" type="v1" speed="10.534370" pos="15.649299" lane=":267701936_2_0" slope="0.000000"/>
        <vehicle id="up_5" x="13.492503" y="55.633692" angle="29.312546" type="v1" speed="7.918415" pos="11.452954" lane="-24626686#1_1" slope="0.000000"/>
        <vehicle id="up_6" x="13.492302" y="55.633485" angle="30.677280" type="v1" speed="13.135497" pos="27.896193" lane="-24626686#2_1" slope="0.000000"/>
        <vehicle id="up_8" x="13.491965" y="55.632906" angle="8.003009" type="v1" speed="6.449455" pos="21.527009" lane="-355113043#1_1" slope="0.000000"/>
        <person id="ped_0" x="13.492819" y="55.634116" angle="207.147673" speed="1.287444" pos="6.126077" edge="34992983#2" slope="0.000000"/>
        <person id="ped_1" x="13.491801" y="55.634250" angle="139.824488" speed="1.232517" pos="5.001211" edge="96027913#2" slope="0.000000"/>
    </timestep>
    <timestep time="24.00">
        <vehicle id="right_1" x="13.492482" y="55.633852" angle="140.049336" type="v1" speed="0.006333" pos="66.536615" lane="96027913#2_1" slope="0.000000"/>
        <vehicle id="right_4" x="13.492419" y="55.633893" angle="139.688184" type="v1" speed="0.021511" pos="60.517602" lane="96027913#2_1" slope="0.000000"/>
        <vehicle id="right_7" x="13.492077" y="55.634116" angle="139.832592" type="v1" speed="16.497543" pos="27.691531" lane="96027913#2_1" slope="0.000000"/>
        <vehicle id="right_9" x="13.490816" y="55.634951" angle="148.648728" type="v1" speed="4.250206" pos="11.722518" lane="96027913#0_1" slope="0.000000"/>
        <vehicle id="up_0" x="13.493435" y="55.634753" angle="23.585915" type="v1" speed="13.523631" pos="74.422716" lane="-34992983#1_1" slope="0.000000"/>
        <vehicle id="up_2" x="13.493013" y="55.634216" angle="25.344261" type="v1" speed="15.725703" pos="8.968950" lane="-34992983#1_1" slope="0.000000"/>
        <vehicle id="up_3" x="13.492769" y="55.633927" angle="27.150877" type="v1" speed="10.891773" pos="8.991072" lane="-34992983#3_1" slope="0.000000"/>
        <vehicle id="up_5" x="13.492539" y="55.633723" angle="33.583683" type="v1" speed="4.009873" pos="15.462827" lane="-24626686#1_1" slope="0.000000"/>
        <vehicle id="up_6" x="13.492391" y="55.633574" angle="30.677280" type="v1" speed="11.316798" pos="39.212992" lane="-24626686#2_1" slope="0.000000"/>
        <vehicle id="up_8" x="13.491980" y="55.632978" angle="8.100918" type="v1" speed="8.047550" pos="29.574559" lane="-355113043#1_1" slope="0.000000"/>
        <person id="ped_0" x="13.492811" y="55.634107" angle="207.147673" speed="1.152640" pos="7.278717" edge="34992983#2" slope="0.000000"/>
        <person id="ped_1" x="13.491815" y="55.634241" angle="139.824488" speed="1.381712" pos="6.382923" edge="96027913#2" slope="0.000000"/>
    </timestep>
    <timestep time="25.00">
        <vehicle id="right_1" x="13.492482" y="55.633852" angle="140.049679" type="v1" speed="0.001585" pos="66.538200" lane="96027913#2_1" slope="0.000000"/>
        <vehicle id="right_4" x="13.492419" y="55.633893" angle="139.688184" type="v1" speed="0.011201" pos="60.528803" lane="96027913#2_1" slope="0.000000"/>
        <vehicle id="right_7" x="13.492214" y="55.634024" angle="141.347117" type="v1" speed="13.412938" pos="41.104469" lane="96027913#2_1" slope="0.000000"/>
        <vehicle id="right_9" x="13.490869" y="55.634911" angle="143.532262" type="v1" speed="5.594016" pos="17.316534" lane="96027913#0_1" slope="0.000000"/>
        <vehicle id="up_0" x="13.493515" y="55.634870" angle="22.617846" type="v1" speed="13.979429" pos="88.402145" lane="-34992983#1_1" slope="0.000000"/>
        <vehicle id="up_2" x="13.493118" y="55.634350" angle="25.344261" type="v1" speed="16.331468" pos="25.300418" lane="-34992983#1_1" slope="0.000000"/>
        <vehicle id="up_3" x="13.492844" y="55.634014" angle="27.150877" type="v1" speed="10.872569" pos="19.863641" lane="-34992983#3_1" slope="0.000000"/>
        <vehicle id="up_5" x="13.492599" y="55.633764" angle="40.286838" type="v1" speed="5.977075" pos="5.439902" lane=":267701936_2_0" slope="0.000000"/>
        <vehicle id="up_6" x="13.492448" y="55.633634" angle="29.439214" type="v1" speed="7.440416" pos="4.163407" lane="-24626686#1_1" slope="0.000000"/>
        <vehicle id="up_8" x="13.491998" y="55.633062" angle="8.100918" type="v1" speed="9.389451" pos="38.964010" lane="-355113043#1_1" slope="0.000000"/>
        <person id="ped_0" x="13.492803" y="55.634097" angle="207.147673" speed="1.172176" pos="8.450893" edge="34992983#2" slope="0.000000"/>
        <person id="ped_1" x="13.491828" y="55.634232" angle="139.824488" speed="1.254405" pos="7.637328" edge="96027913#2" slope="0.000000"/>
    </timestep>
    <timestep time="26.00">
        <vehicle id="right_1" x="13.492482" y="55.633852" angle="140.049825" type="v1" speed="0.000673" pos="66.538873" lane="96027913#2_1" slope="0.000000"/>
        <vehicle id="right_4" x="13.492419" y="55.633893" angle="139.688184" type="v1" speed="0.007480" pos="60.536283" lane="96027913#2_1" slope="0.000000"/>
        <vehicle id="right_7" x="13.492308" y="55.633964" angle="139.688184" type="v1" speed="8.912938" pos="50.017408" lane="96027913#2_1" slope="0.000000"/>
        <vehicle id="right_9" x="13.490947" y="55.634857" angle="142.175987" type="v1" speed="7.811663" pos="25.128198" lane="96027913#0_1" slope="0.000000"/>