<?xml version="1.0" encoding="UTF-8"?>

<!-- generated on 2022-06-21 20:18:53 by Eclipse SUMO sumo Version 1.10.0
<configuration xmlns:xsi="http://www.w3.org/2001/XMLSchema-instance" xsi:noNamespaceSchemaLocation="http://sumo.dlr.de/xsd/sumoConfiguration.xsd">

    <input>
        <net-file value="Veberod_intersection.net.xml"/>
        <route-files value="Veberod_intersection.rou.xml"/>
        <additional-files value="Veberod_intersection.add.xml"/>
    </input>

    <output>
        <fcd-output value="veberod-fcd.xml"/>
        <fcd-output.geo value="true"/>
    </output>

    <time>
        <begin value="10"/>
        <end value="3600"/>
    </time>

    <processing>
        <time-to-teleport value="-1"/>
    </processing>

    <report>
        <no-warnings value="true"/>
        <no-step-log value="true"/>
    </report>

    <traci_server>
        <remote-port value="50367"/>
    </traci_server>

</configuration>
-->

<fcd-export xmlns:xsi="http://www.w3.org/2001/XMLSchema-instance" xsi:noNamespaceSchemaLocation="http://sumo.dlr.de/xsd/fcd_file.xsd">
    <timestep time="10.00">
        <vehicle id="right_5" x="13.490785" y="55.634978" angle="152.408063" type="v1" speed="0.000000" pos="5.100000" lane="96027913#0_0" slope="0.000000"/>
    </timestep>
    <timestep time="11.00">
        <vehicle id="right_5" x="13.490798" y="55.634967" angle="150.909144" type="v1" speed="1.433850" pos="6.533850" lane="96027913#0_0" slope="0.000000"/>
    </timestep>
    <timestep time="12.00">
        <vehicle id="right_5" x="13.490833" y="55.634937" angle="148.032754" type="v1" speed="4.033344" pos="10.567194" lane="96027913#0_0" slope="0.000000"/>
    </timestep>
    <timestep time="13.00">
        <vehicle id="right_5" x="13.490895" y="55.634893" angle="142.175987" type="v1" speed="6.206378" pos="16.773571" lane="96027913#0_0" slope="0.000000"/>
        <vehicle id="right_6" x="13.490785" y="55.634978" angle="152.408063" type="v1" speed="0.000000" pos="5.100000" lane="96027913#0_0" slope="0.000000"/>
    </timestep>
    <timestep time="14.00">
        <vehicle id="right_5" x="13.490981" y="55.634833" angle="142.175987" type="v1" speed="8.632489" pos="25.406060" lane="96027913#0_0" slope="0.000000"/>
        <vehicle id="right_6" x="13.490803" y="55.634962" angle="150.279689" type="v1" speed="2.035858" pos="7.135858" lane="96027913#0_0" slope="0.000000"/>
    </timestep>
    <timestep time="15.00">
        <vehicle id="right_5" x="13.491093" y="55.634756" angle="141.287245" type="v1" speed="11.053272" pos="36.459332" lane="96027913#0_0" slope="0.000000"/>
        <vehicle id="right_6" x="13.490834" y="55.634936" angle="147.936604" type="v1" speed="3.510286" pos="10.646144" lane="96027913#0_0" slope="0.000000"/>
    </timestep>
    <timestep time="16.00">
        <vehicle id="right_5" x="13.491222" y="55.634672" angle="140.346764" type="v1" speed="12.409088" pos="48.868420" lane="96027913#0_0" slope="0.000000"/>
        <vehicle id="right_6" x="13.490888" y="55.634898" angle="142.175987" type="v1" speed="5.489783" pos="16.135927" lane="96027913#0_0" slope="0.000000"/>
        <vehicle id="right_7" x="13.490785" y="55.634978" angle="152.408063" type="v1" speed="0.000000" pos="5.100000" lane="96027913#0_0" slope="0.000000"/>
    </timestep>
    <timestep time="17.00">
        <vehicle id="right_5" x="13.491365" y="55.634579" angle="140.414569" type="v1" speed="13.759173" pos="62.627593" lane="96027913#0_0" slope="0.000000"/>
        <vehicle id="right_6" x="13.490968" y="55.634843" angle="142.175987" type="v1" speed="7.918875" pos="24.054802" lane="96027913#0_0" slope="0.000000"/>
        <vehicle id="right_7" x="13.490802" y="55.634963" angle="150.357120" type="v1" speed="1.961798" pos="7.061798" lane="96027913#0_0" slope="0.000000"/>
    </timestep>
    <timestep time="18.00">
        <vehicle id="right_5" x="13.491528" y="55.634472" angle="140.442084" type="v1" speed="15.708635" pos="78.336228" lane="96027913#0_0" slope="0.000000"/>
        <vehicle id="right_6" x="13.491065" y="55.634775" angle="142.175987" type="v1" speed="9.684911" pos="33.739712" lane="96027913#0_0" slope="0.000000"/>
        <vehicle id="right_7" x="13.490834" y="55.634936" angle="147.868800" type="v1" speed="3.640014" pos="10.701812" lane="96027913#0_0" slope="0.000000"/>
    </timestep>
    <timestep time="19.00">
        <vehicle id="right_5" x="13.491718" y="55.634348" angle="140.442084" type="v1" speed="18.270903" pos="96.607131" lane="96027913#0_0" slope="0.000000"/>
        <vehicle id="right_6" x="13.491189" y="55.634694" angle="140.346764" type="v1" speed="11.960512" pos="45.700224" lane="96027913#0_0" slope="0.000000"/>
        <vehicle id="right_7" x="13.490888" y="55.634898" angle="142.175987" type="v1" speed="5.388945" pos="16.090757" lane="96027913#0_0" slope="0.000000"/>
        <vehicle id="right_8" x="13.490785" y="55.634978" angle="152.408063" type="v1" speed="0.000000" pos="5.100000" lane="96027913#0_0" slope="0.000000"/>
    </timestep>
    <timestep time="20.00">
        <vehicle id="right_5" x="13.491928" y="55.634212" angle="139.832592" type="v1" speed="20.064711" pos="13.451842" lane="96027913#2_0" slope="0.000000"/>
        <vehicle id="right_6" x="13.491337" y="55.634597" angle="140.362813" type="v1" speed="14.212544" pos="59.912768" lane="96027913#0_0" slope="0.000000"/>
        <vehicle id="right_7" x="13.490965" y="55.634844" angle="142.175987" type="v1" speed="7.694361" pos="23.785118" lane="96027913#0_0" slope="0.000000"/>
        <vehicle id="right_8" x="13.490799" y="55.634966" angle="150.748623" type="v1" speed="1.587366" pos="6.687366" lane="96027913#0_0" slope="0.000000"/>
    </timestep>
    <timestep time="21.00">
        <vehicle id="right_5" x="13.492128" y="55.634082" angle="141.003101" type="v1" speed="19.197656" pos="32.649498" lane="96027913#2_0" slope="0.000000"/>
        <vehicle id="right_6" x="13.491507" y="55.634485" angle="140.442084" type="v1" speed="16.433848" pos="76.346616" lane="96027913#0_0" slope="0.000000"/>
        <vehicle id="right_7" x="13.491065" y="55.634775" angle="142.175987" type="v1" speed="10.014612" pos="33.799730" lane="96027913#0_0" slope="0.000000"/>
        <vehicle id="right_8" x="13.490826" y="55.634942" angle="148.273590" type="v1" speed="3.180937" pos="9.868303" lane="96027913#0_0" slope="0.000000"/>
    </timestep>
    <timestep time="22.00">
        <vehicle id="right_5" x="13.492280" y="55.633982" angle="139.688184" type="v1" speed="14.697656" pos="47.347154" lane="96027913#2_0" slope="0.000000"/>
        <vehicle id="right_6" x="13.491705" y="55.634356" angle="140.442084" type="v1" speed="19.007103" pos="95.353720" lane="96027913#0_0" slope="0.000000"/>
        <vehicle id="right_7" x="13.491191" y="55.634692" angle="140.346764" type="v1" speed="12.100575" pos="45.900305" lane="96027913#0_0" slope="0.000000"/>
        <vehicle id="right_8" x="13.490878" y="55.634905" angle="142.469526" type="v1" speed="5.259985" pos="15.128288" lane="96027913#0_0" slope="0.000000"/>
        <vehicle id="right_9" x="13.490785" y="55.634978" angle="152.408063" type="v1" speed="0.000000" pos="5.100000" lane="96027913#0_0" slope="0.000000"/>
    </timestep>
    <timestep time="23.00">
        <vehicle id="right_5" x="13.492395" y="55.633908" angle="139.688184" type="v1" speed="10.903536" pos="58.250690" lane="96027913#2_0" slope="0.000000"/>
        <vehicle id="right_6" x="13.491923" y="55.634215" angle="139.832592" type="v1" speed="20.923399" pos="13.057118" lane="96027913#2_0" slope="0.000000"/>
        <vehicle id="right_7" x="13.491337" y="55.634597" angle="140.364177" type="v1" speed="14.083980" pos="59.984285" lane="96027913#0_0" slope="0.000000"/>
        <vehicle id="right_8" x="13.490957" y="55.634850" angle="142.175987" type="v1" speed="7.857325" pos="22.985613" lane="96027913#0_0" slope="0.000000"/>
        <vehicle id="right_9" x="13.490800" y="55.634964" angle="150.567958" type="v1" speed="1.760150" pos="6.860150" lane="96027913#0_0" slope="0.000000"/>
    </timestep>
    <timestep time="24.00">
        <vehicle id="right_5" x="13.492465" y="55.633863" angle="139.706435" type="v1" speed="6.712123" pos="64.962814" lane="96027913#2_0" slope="0.000000"/>
        <vehicle id="right_6" x="13.492105" y="55.634098" angle="140.304220" type="v1" speed="17.285220" pos="30.342339" lane="96027913#2_0" slope="0.000000"/>
        <vehicle id="right_7" x="13.491508" y="55.634485" angle="140.442084" type="v1" speed="16.466200" pos="76.450484" lane="96027913#0_0" slope="0.000000"/>
        <vehicle id="right_8" x="13.491052" y="55.634784" angle="142.175987" type="v1" speed="9.475667" pos="32.461280" lane="96027913#0_0" slope="0.000000"/>
        <vehicle id="right_9" x="13.490836" y="55.634934" angle="147.624165" type="v1" speed="4.042462" pos="10.902611" lane="96027913#0_0" slope="0.000000"/>
    </timestep>
    <timestep time="25.00">
        <vehicle id="right_10" x="13.490785" y="55.634978" angle="152.408063" type="v1" speed="0.000000" pos="5.100000" lane="96027913#0_0" slope="0.000000"/>
        <vehicle id="right_5" x="13.492488" y="55.633848" angle="140.231052" type="v1" speed="2.212123" pos="67.174937" lane="96027913#2_0" slope="0.000000"/>
        <vehicle id="right_6" x="13.492240" y="55.634007" angle="140.736527" type="v1" speed="13.201576" pos="43.543915" lane="96027913#2_0" slope="0.000000"/>
        <vehicle id="right_7" x="13.491700" y="55.634359" angle="140.442084" type="v1" speed="18.506602" pos="94.957087" lane="96027913#0_0" slope="0.000000"/>
        <vehicle id="right_8" x="13.491167" y="55.634708" angle="140.346764" type="v1" speed="11.082577" pos="43.543857" lane="96027913#0_0" slope="0.000000"/>
        <vehicle id="right_9" x="13.490891" y="55.634896" angle="142.175987" type="v1" speed="5.517130" pos="16.419741" lane="96027913#0_0" slope="0.000000"/>
    </timestep>
    <timestep time="26.00">
        <vehicle id="right_10" x="13.490806" y="55.634960" angle="149.908490" type="v1" speed="2.390927" pos="7.490927" lane="96027913#0_0" slope="0.000000"/>
        <vehicle id="right_5" x="13.492489" y="55.633847" angle="140.255381" type="v1" speed="0.102583" pos="67.277520" lane="96027913#2_0" slope="0.000000"/>
        <vehicle id="right_6" x="13.492342" y="55.633942" angle="139.688184" type="v1" speed="9.749600" pos="53.293516" lane="96027913#2_0" slope="0.000000"/>
        <vehicle id="right_7" x="13.491912" y="55.634222" angle="139.832592" type="v1" speed="20.185572" pos="11.922659" lane="96027913#2_0" slope="0.000000"/>
        <vehicle id="right_8" x="13.491300" y="55.634621" angle="140.346764" type="v1" speed="12.879854" pos="56.423711" lane="96027913#0_0" slope="0.000000"/>
        <vehicle id="right_9" x="13.490971" y="55.634840" angle="142.175987" type="v1" speed="7.988759" pos="24.408500" lane="96027913#0_0" slope="0.000000"/>
    </timestep>
    <timestep time="27.00">
        <vehicle id="right_10" x="13.490846" y="55.634928" angle="146.470132" type="v1" speed="4.358081" pos="11.849008" lane="96027913#0_0" slope="0.000000"/>
        <vehicle id="right_5" x="13.492490" y="55.633847" angle="140.264347" type="v1" speed="0.037806" pos="67.315326" lane="96027913#2_0" slope="0.000000"/>
        <vehicle id="right_6" x="13.492400" y="55.633905" angle="139.688184" type="v1" speed="5.459887" pos="58.753403" lane="96027913#2_0" slope="0.000000"/>
        <vehicle id="right_7" x="13.492076" y="55.634117" angle="139.832592" type="v1" speed="15.685572" pos="27.608232" lane="96027913#2_0" slope="0.000000"/>
        <vehicle id="right_8" x="13.491461" y="55.634516" angle="140.442084" type="v1" speed="15.472111" pos="71.895822" lane="96027913#0_0" slope="0.000000"/>
        <vehicle id="right_9" x="13.491066" y="55.634774" angle="142.175987" type="v1" speed="9.419984" pos="33.828484" lane="96027913#0_0" slope="0.000000"/>
    </timestep>
    <timestep time="28.00">
        <vehicle id="right_10" x="13.490910" y="55.634883" angle="142.175987" type="v1" speed="6.430646" pos="18.279654" lane="96027913#0_0" slope="0.000000"/>
        <vehicle id="right_11" x="13.490785" y="55.634978" angle="152.408063" type="v1" speed="0.000000" pos="5.100000" lane="96027913#0_0" slope="0.000000"/>
        <vehicle id="right_5" x="13.492490" y="55.633847" angle="140.267281" type="v1" speed="0.012371" pos="67.327697" lane="96027913#2_0" slope="0.000000"/>
        <vehicle id="right_6" x="13.492410" y="55.633899" angle="139.688184" type="v1" speed="0.959887" pos="59.713290" lane="96027913#2_0" slope="0.000000"/>
        <vehicle id="right_7" x="13.492200" y="55.634033" angle="141.347117" type="v1" speed="12.124956" pos="39.733188" lane="96027913#2_0" slope="0.000000"/>
        <vehicle id="right_8" x="13.491647" y="55.634394" angle="140.442084" type="v1" speed="17.930988" pos="89.826810" lane="96027913#0_0" slope="0.000000"/>
        <vehicle id="right_9" x="13.491188" y="55.634695" angle="140.346764" type="v1" speed="11.737876" pos="45.566360" lane="96027913#0_0" slope="0.000000"/>
    </timestep>
    <timestep time="29.00">
        <vehicle id="right_10" x="13.490997" y="55.634822" angle="142.175987" type="v1" speed="8.715628" pos="26.995282" lane="96027913#0_0" slope="0.000000"/>
        <vehicle id="right_11" x="13.490805" y="55.634960" angle="149.989628" type="v1" speed="2.313309" pos="7.413309" lane="96027913#0_0" slope="0.000000"/>
        <vehicle id="right_5" x="13.492490" y="55.633847" angle="140.269273" type="v1" speed="0.008400" pos="67.336097" lane="96027913#2_0" slope="0.000000"/>
        <vehicle id="right_6" x="13.492411" y="55.633898" angle="139.688184" type="v1" speed="0.072970" pos="59.786260" lane="96027913#2_0" slope="0.000000"/>
        <vehicle id="right_7" x="13.492286" y="55.633978" angle="139.688184" type="v1" speed="8.172091" pos="47.905279" lane="96027913#2_0" slope="0.000000"/>
        <vehicle id="right_8" x="13.491850" y="55.634262" angle="139.832592" type="v1" speed="19.476787" pos="6.083597" lane="96027913#2_0" slope="0.000000"/>
        <vehicle id="right_9" x="13.491327" y="55.634604" angle="140.346764" type="v1" speed="13.365928" pos="58.932288" lane="96027913#0_0" slope="0.000000"/>
    </timestep>
    <timestep time="30.00">
        <vehicle id="right_10" x="13.491109" y="55.634746" angle="140.723043" type="v1" speed="11.006151" pos="38.001434" lane="96027913#0_0" slope="0.000000"/>
        <vehicle id="right_11" x="13.490840" y="55.634932" angle="147.185028" type="v1" speed="3.849576" pos="11.262884" lane="96027913#0_0" slope="0.000000"/>
        <vehicle id="right_5" x="13.492490" y="55.633847" angle="140.269763" type="v1" speed="0.002066" pos="67.338163" lane="96027913#2_0" slope="0.000000"/>
        <vehicle id="right_6" x="13.492411" y="55.633898" angle="139.688184" type="v1" speed="0.030740" pos="59.817000" lane="96027913#2_0" slope="0.000000"/>
        <vehicle id="right_7" x="13.492324" y="55.633953" angle="139.688184" type="v1" speed="3.672091" pos="51.577370" lane="96027913#2_0" slope="0.000000"/>
        <vehicle id="right_8" x="13.492020" y="55.634153" angle="139.832592" type="v1" speed="16.138863" pos="22.222460" lane="96027913#2_0" slope="0.000000"/>
        <vehicle id="right_9" x="13.491485" y="55.634500" angle="140.442084" type="v1" speed="15.247424" pos="74.179712" lane="96027913#0_0" slope="0.000000"/>
    </timestep>
    <timestep time="31.00">
        <vehicle id="right_10" x="13.491243" y="55.634658" angle="140.346764" type="v1" speed="12.935313" pos="50.936747" lane="96027913#0_0" slope="0.000000"/>
        <vehicle id="right_11" x="13.490898" y="55.634891" angle="142.175987" type="v1" speed="5.789950" pos="17.052834" lane="96027913#0_0" slope="0.000000"/>
        <vehicle id="right_12" x="13.490785" y="55.634978" angle="152.408063" type="v1" speed="0.000000" pos="5.100000" lane="96027913#0_0" slope="0.000000"/>
        <vehicle id="right_5" x="13.492490" y="55.633847" angle="140.269884" type="v1" speed="0.000508" pos="67.338671" lane="96027913#2_0" slope="0.000000"/>
        <vehicle id="right_6" x="13.492411" y="55.633898" angle="139.688184" type="v1" speed="0.010897" pos="59.827897" lane="96027913#2_0" slope="0.000000"/>
        <vehicle id="right_7" x="13.492330" y="55.633950" angle="139.688184" type="v1" speed="0.558423" pos="52.135792" lane="96027913#2_0" slope="0.000000"/>
        <vehicle id="right_8" x="13.492140" y="55.634074" angle="141.347117" type="v1" speed="11.638863" pos="33.861323" lane="96027913#2_0" slope="0.000000"/>
        <vehicle id="right_9" x="13.491664" y="55.634383" angle="140.442084" type="v1" speed="17.223216" pos="91.402928" lane="96027913#0_0" slope="0.000000"/>
    </timestep>
    <timestep time="32.00">
        <vehicle id="right_10" x="13.491396" y="55.634558" angle="140.442084" type="v1" speed="14.733307" pos="65.670054" lane="96027913#0_0" slope="0.000000"/>
        <vehicle id="right_11" x="13.490972" y="55.634840" angle="142.175987" type="v1" speed="7.425524" pos="24.478358" lane="96027913#0_0" slope="0.000000"/>
        <vehicle id="right_12" x="13.490807" y="55.634959" angle="149.744169" type="v1" speed="2.548131" pos="7.648131" lane="96027913#0_0" slope="0.000000"/>
        <vehicle id="right_5" x="13.492490" y="55.633847" angle="140.269936" type="v1" speed="0.000218" pos="67.338890" lane="96027913#2_0" slope="0.000000"/>
        <vehicle id="right_6" x="13.492411" y="55.633898" angle="139.688184" type="v1" speed="0.009743" pos="59.837640" lane="96027913#2_0" slope="0.000000"/>
        <vehicle id="right_7" x="13.492332" y="55.633949" angle="139.688184" type="v1" speed="0.131900" pos="52.267692" lane="96027913#2_0" slope="0.000000"/>
        <vehicle id="right_8" x="13.492213" y="55.634025" angle="141.347117" type="v1" speed="7.138863" pos="41.000185" lane="96027913#2_0" slope="0.000000"/>
        <vehicle id="right_9" x="13.491848" y="55.634263" angle="139.832592" type="v1" speed="17.680122" pos="5.863050" lane="96027913#2_0" slope="0.000000"/>
    </timestep>
    <timestep time="33.00">
        <vehicle id="right_10" x="13.491565" y="55.634448" angle="140.442084" type="v1" speed="16.200609" pos="81.870663" lane="96027913#0_0" slope="0.000000"/>
        <vehicle id="right_11" x="13.491069" y="55.634772" angle="142.124777" type="v1" speed="9.691677" pos="34.170035" lane="96027913#0_0" slope="0.000000"/>
        <vehicle id="right_12" x="13.490843" y="55.634930" angle="146.825628" type="v1" speed="3.909467" pos="11.557598" lane="96027913#0_0" slope="0.000000"/>
        <vehicle id="right_5" x="13.492490" y="55.633847" angle="140.269936" type="v1" speed="0.000000" pos="67.338890" lane="96027913#2_0" slope="0.000000"/>
        <vehicle id="right_6" x="13.492411" y="55.633898" angle="139.688184" type="v1" speed="0.000208" pos="59.837848" lane="96027913#2_0" slope="0.000000"/>
        <vehicle id="right_7" x="13.492332" y="55.633948" angle="139.688184" type="v1" speed="0.060302" pos="52.327994" lane="96027913#2_0" slope="0.000000"/>
        <vehicle id="right_8" x="13.492251" y="55.634000" angle="140.369553" type="v1" speed="3.649709" pos="44.649894" lane="96027913#2_0" slope="0.000000"/>
        <vehicle id="right_9" x="13.491994" y="55.634169" angle="139.832592" type="v1" speed="13.941707" pos="19.804757" lane="96027913#2_0" slope="0.000000"/>
    </timestep>
    <timestep time="34.00">
        <vehicle id="right_10" x="13.491758" y="55.634321" angle="140.442084" type="v1" speed="18.658510" pos="100.529174" lane="96027913#0_0" slope="0.000000"/>
        <vehicle id="right_11" x="13.491189" y="55.634694" angle="140.346764" type="v1" speed="11.540178" pos="45.710213" lane="96027913#0_0" slope="0.000000"/>
        <vehicle id="right_12" x="13.490901" y="55.634889" angle="142.175987" type="v1" speed="5.855342" pos="17.412939" lane="96027913#0_0" slope="0.000000"/>
        <vehicle id="right_13" x="13.490785" y="55.634978" angle="152.408063" type="v1" speed="0.000000" pos="5.100000" lane="96027913#0_0" slope="0.000000"/>
        <vehicle id="right_5" x="13.492490" y="55.633847" angle="140.269936" type="v1" speed="0.000000" pos="67.338890" lane="96027913#2_0" slope="0.000000"/>
        <vehicle id="right_6" x="13.492411" y="55.633898" angle="139.688184" type="v1" speed="0.000000" pos="59.837848" lane="96027913#2_0" slope="0.000000"/>
        <vehicle id="right_7" x="13.492332" y="55.633948" angle="139.688184" type="v1" speed="0.006162" pos="52.334156" lane="96027913#2_0" slope="0.000000"/>
        <vehicle id="right_8" x="13.492252" y="55.633999" angle="140.339103" type="v1" speed="0.091771" pos="44.741665" lane="96027913#2_0" slope="0.000000"/>
        <vehicle id="right_9" x="13.492095" y="55.634105" angle="140.006534" type="v1" speed="9.554811" pos="29.359567" lane="96027913#2_0" slope="0.000000"/>
        <vehicle id="up_14" x="13.491935" y="55.632759" angle="7.870063" type="v1" speed="0.000000" pos="5.100000" lane="-355113043#1_0" slope="0.000000"/>
    </timestep>
    <timestep time="35.00">
        <vehicle id="right_10" x="13.491907" y="55.634225" angle="139.832592" type="v1" speed="14.158510" pos="11.467684" lane="96027913#2_0" slope="0.000000"/>
        <vehicle id="right_11" x="13.491323" y="55.634606" angle="140.346764" type="v1" speed="12.875655" pos="58.585868" lane="96027913#0_0" slope="0.000000"/>
        <vehicle id="right_12" x="13.490983" y="55.634832" angle="142.175987" type="v1" speed="8.127789" pos="25.540728" lane="96027913#0_0" slope="0.000000"/>
        <vehicle id="right_13" x="13.490800" y="55.634965" angle="150.588938" type="v1" speed="1.740085" pos="6.840085" lane="96027913#0_0" slope="0.000000"/>
        <vehicle id="right_5" x="13.492490" y="55.633847" angle="140.269936" type="v1" speed="0.000000" pos="67.338890" lane="96027913#2_0" slope="0.000000"/>
        <vehicle id="right_6" x="13.492411" y="55.633898" angle="139.688184" type="v1" speed="0.000000" pos="59.837848" lane="96027913#2_0" slope="0.000000"/>
        <vehicle id="right_7" x="13.492332" y="55.633948" angle="139.688184" type="v1" speed="0.002664" pos="52.336820" lane="96027913#2_0" slope="0.000000"/>
        <vehicle id="right_8" x="13.492253" y="55.633999" angle="140.317163" type="v1" speed="0.066123" pos="44.807788" lane="96027913#2_0" slope="0.000000"/>
        <vehicle id="right_9" x="13.492146" y="55.634070" angle="141.347117" type="v1" speed="5.054811" pos="34.414378" lane="96027913#2_0" slope="0.000000"/>
        <vehicle id="up_14" x="13.491938" y="55.632776" angle="7.870063" type="v1" speed="1.891703" pos="6.991703" lane="-355113043#1_0" slope="0.000000"/>
    </timestep>
    <timestep time="36.00">
        <vehicle id="right_10" x="13.492008" y="55.634160" angle="139.832592" type="v1" speed="9.658510" pos="21.126194" lane="96027913#2_0" slope="0.000000"/>
        <vehicle id="right_11" x="13.491477" y="55.634505" angle="140.442084" type="v1" speed="14.863880" pos="73.449748" lane="96027913#0_0" slope="0.000000"/>
        <vehicle id="right_12" x="13.491086" y="55.634761" angle="141.525140" type="v1" speed="10.268392" pos="35.809120" lane="96027913#0_0" slope="0.000000"/>
        <vehicle id="right_13" x="13.490830" y="55.634939" angle="148.273590" type="v1" speed="3.394275" pos="10.234360" lane="96027913#0_0" slope="0.000000"/>
        <vehicle id="right_5" x="13.492490" y="55.633847" angle="140.269936" type="v1" speed="0.000000" pos="67.338890" lane="96027913#2_0" slope="0.000000"/>
        <vehicle id="right_6" x="13.492411" y="55.633898" angle="139.688184" type="v1" speed="0.000000" pos="59.837848" lane="96027913#2_0" slope="0.000000"/>
        <vehicle id="right_7" x="13.492332" y="55.633948" angle="139.688184" type="v1" speed="0.000000" pos="52.336820" lane="96027913#2_0" slope="0.000000"/>
        <vehicle id="right_8" x="13.492253" y="55.633999" angle="140.308041" type="v1" speed="0.027493" pos="44.835281" lane="96027913#2_0" slope="0.000000"/>
        <vehicle id="right_9" x="13.492172" y="55.634053" angle="141.347117" type="v1" speed="2.500352" pos="36.914730" lane="96027913#2_0" slope="0.000000"/>
        <vehicle id="up_14" x="13.491946" y="55.632814" angle="7.870063" type="v1" speed="4.231801" pos="11.223505" lane="-355113043#1_0" slope="0.000000"/>
    </timestep>
    <timestep time="37.00">
        <vehicle id="right_10" x="13.492073" y="55.634119" angle="139.832592" type="v1" speed="6.134113" pos="27.260307" lane="96027913#2_0" slope="0.000000"/>
        <vehicle id="right_11" x="13.491648" y="55.634393" angle="140.442084" type="v1" speed="16.499973" pos="89.949721" lane="96027913#0_0" slope="0.000000"/>
        <vehicle id="right_12" x="13.491210" y="55.634680" angle="140.346764" type="v1" speed="11.891278" pos="47.700398" lane="96027913#0_0" slope="0.000000"/>
        <vehicle id="right_13" x="13.490881" y="55.634903" angle="142.175987" type="v1" speed="5.159907" pos="15.394266" lane="96027913#0_0" slope="0.000000"/>
        <vehicle id="right_15" x="13.490785" y="55.634978" angle="152.408063" type="v1" speed="0.000000" pos="5.100000" lane="96027913#0_0" slope="0.000000"/>
        <vehicle id="right_5" x="13.492490" y="55.633847" angle="140.269936" type="v1" speed="0.000000" pos="67.338890" lane="96027913#2_0" slope="0.000000"/>
        <vehicle id="right_6" x="13.492411" y="55.633898" angle="139.688184" type="v1" speed="0.000000" pos="59.837848" lane="96027913#2_0" slope="0.000000"/>
        <vehicle id="right_7" x="13.492332" y="55.633948" angle="139.688184" type="v1" speed="0.000000" pos="52.336820" lane="96027913#2_0" slope="0.000000"/>
        <vehicle id="right_8" x="13.492253" y="55.633999" angle="140.307926" type="v1" speed="0.000346" pos="44.835627" lane="96027913#2_0" slope="0.000000"/>
        <vehicle id="right_9" x="13.492176" y="55.634050" angle="141.347117" type="v1" speed="0.399965" pos="37.314695" lane="96027913#2_0" slope="0.000000"/>
        <vehicle id="up_14" x="13.491956" y="55.632863" angle="7.870063" type="v1" speed="5.557370" pos="16.780874" lane="-355113043#1_0" slope="0.000000"/>
    </timestep>
    <timestep time="38.00">
        <vehicle id="right_10" x="13.492097" y="55.634103" angle="140.065758" type="v1" speed="2.294787" pos="29.555094" lane="96027913#2_0" slope="0.000000"/>
        <vehicle id="right_11" x="13.491804" y="55.634292" angle="140.150502" type="v1" speed="14.934039" pos="1.663759" lane="96027913#2_0" slope="0.000000"/>
        <vehicle id="right_12" x="13.491351" y="55.634588" angle="140.388826" type="v1" speed="13.576865" pos="61.277263" lane="96027913#0_0" slope="0.000000"/>
        <vehicle id="right_13" x="13.490955" y="55.634852" angle="142.175987" type="v1" speed="7.357807" pos="22.752073" lane="96027913#0_0" slope="0.000000"/>
        <vehicle id="right_15" x="13.490803" y="55.634963" angle="150.309534" type="v1" speed="2.007312" pos="7.107312" lane="96027913#0_0" slope="0.000000"/>
        <vehicle id="right_5" x="13.492490" y="55.633847" angle="140.269936" type="v1" speed="0.000000" pos="67.338890" lane="96027913#2_0" slope="0.000000"/>
        <vehicle id="right_6" x="13.492411" y="55.633898" angle="139.688184" type="v1" speed="0.000000" pos="59.837848" lane="96027913#2_0" slope="0.000000"/>
        <vehicle id="right_7" x="13.492332" y="55.633948" angle="139.688184" type="v1" speed="0.000000" pos="52.336820" lane="96027913#2_0" slope="0.000000"/>
        <vehicle id="right_8" x="13.492253" y="55.633999" angle="140.307887" type="v1" speed="0.000116" pos="44.835743" lane="96027913#2_0" slope="0.000000"/>
        <vehicle id="right_9" x="13.492176" y="55.634050" angle="141.347117" type="v1" speed="0.015524" pos="37.330219" lane="96027913#2_0" slope="0.000000"/>
        <vehicle id="up_14" x="13.491969" y="55.632925" angle="8.100918" type="v1" speed="6.948354" pos="23.729228" lane="-355113043#1_0" slope="0.000000"/>
    </timestep>
    <timestep time="39.00">
        <vehicle id="right_10" x="13.492098" y="55.634102" angle="140.114393" type="v1" speed="0.160565" pos="29.715659" lane="96027913#2_0" slope="0.000000"/>
        <vehicle id="right_11" x="13.491918" y="55.634218" angle="139.832592" type="v1" speed="10.908738" pos="12.572497" lane="96027913#2_0" slope="0.000000"/>
        <vehicle id="right_12" x="13.491507" y="55.634485" angle="140.442084" type="v1" speed="15.070721" pos="76.347984" lane="96027913#0_0" slope="0.000000"/>
        <vehicle id="right_13" x="13.491052" y="55.634784" angle="142.175987" type="v1" speed="9.699233" pos="32.451306" lane="96027913#0_0" slope="0.000000"/>
        <vehicle id="right_15" x="13.490842" y="55.634930" angle="146.884860" type="v1" speed="4.401722" pos="11.509034" lane="96027913#0_0" slope="0.000000"/>
        <vehicle id="right_5" x="13.492490" y="55.633847" angle="140.269936" type="v1" speed="0.000000" pos="67.338890" lane="96027913#2_0" slope="0.000000"/>
        <vehicle id="right_6" x="13.492411" y="55.633898" angle="139.688184" type="v1" speed="0.000000" pos="59.837848" lane="96027913#2_0" slope="0.000000"/>
        <vehicle id="right_7" x="13.492332" y="55.633948" angle="139.688184" type="v1" speed="0.000000" pos="52.336820" lane="96027913#2_0" slope="0.000000"/>
        <vehicle id="right_8" x="13.492253" y="55.633999" angle="140.307887" type="v1" speed="0.000000" pos="44.835743" lane="96027913#2_0" slope="0.000000"/>
        <vehicle id="right_9" x="13.492176" y="55.634050" angle="141.347117" type="v1" speed="0.004045" pos="37.334264" lane="96027913#2_0" slope="0.000000"/>
        <vehicle id="up_14" x="13.491987" y="55.633009" angle="8.100918" type="v1" speed="9.409397" pos="33.138626" lane="-355113043#1_0" slope="0.000000"/>
    </timestep>
    <timestep time="40.00">
        <vehicle id="right_10" x="13.492099" y="55.634102" angle="140.149024" type="v1" speed="0.114330" pos="29.829989" lane="96027913#2_0" slope="0.000000"/>
        <vehicle id="right_11" x="13.491986" y="55.634175" angle="139.832592" type="v1" speed="6.408738" pos="18.981235" lane="96027913#2_0" slope="0.000000"/>